title                   = NPT equilibration

define                  = -DPOSRES

integrator              = md
dt                      = 0.002
nsteps                  = 50000

nstxout-compressed      = 1000
nstenergy               = 1000
nstlog                  = 1000

cutoff-scheme           = Verlet

coulombtype             = PME
rcoulomb                = 1.0

vdwtype                 = Cut-off
rvdw                    = 1.0

pbc                     = xyz

constraints             = h-bonds
constraint-algorithm    = lincs

tcoupl                  = V-rescale
tc-grps                 = Protein Water_and_ions
tau_t                   = 0.1 0.1
ref_t                   = 300 300

pcoupl                  = C-rescale
pcoupltype              = isotropic
tau_p                   = 2.0
ref_p                   = 1.0
compressibility         = 4.5e-5

refcoord-scaling        = all

gen-vel                 = no
