TC5B in water
 5933
    1ASN      N    1   2.386   3.709   1.481
    1ASN     H1    2   2.433   3.690   1.569
    1ASN     H2    3   2.412   3.802   1.449
    1ASN     H3    4   2.287   3.709   1.501
    1ASN     CA    5   2.415   3.605   1.379
    1ASN     HA    6   2.378   3.511   1.420
    1ASN     CB    7   2.338   3.627   1.248
    1ASN    HB1    8   2.360   3.546   1.179
    1ASN    HB2    9   2.368   3.719   1.201
    1ASN     CG   10   2.187   3.632   1.271
    1ASN    OD1   11   2.140   3.624   1.383
    1ASN    ND2   12   2.106   3.649   1.169
    1ASN   HD21   13   2.142   3.653   1.074
    1ASN   HD22   14   2.007   3.642   1.185
    1ASN      C   15   2.564   3.584   1.355
    1ASN      O   16   2.609   3.471   1.370
    2LEU      N   17   2.643   3.687   1.323
    2LEU      H   18   2.602   3.777   1.303
    2LEU     CA   19   2.790   3.678   1.304
    2LEU     HA   20   2.809   3.623   1.211
    2LEU     CB   21   2.846   3.820   1.284
    2LEU    HB1   22   2.810   3.854   1.187
    2LEU    HB2   23   2.955   3.815   1.277
    2LEU     CG   24   2.804   3.922   1.392
    2LEU     HG   25   2.723   3.883   1.453
    2LEU    CD1   26   2.915   3.960   1.487
    2LEU   HD11   27   2.876   4.031   1.560
    2LEU   HD12   28   2.953   3.874   1.540
    2LEU   HD13   29   2.996   4.010   1.434
    2LEU    CD2   30   2.754   4.050   1.327
    2LEU   HD21   31   2.716   4.115   1.405
    2LEU   HD22   32   2.835   4.101   1.275
    2LEU   HD23   33   2.674   4.028   1.257
    2LEU      C   34   2.866   3.601   1.414
    2LEU      O   35   2.936   3.504   1.385
    3TYR      N   36   2.844   3.634   1.542
    3TYR      H   37   2.793   3.719   1.562
    3TYR     CA   38   2.910   3.564   1.653
    3TYR     HA   39   3.017   3.565   1.634
    3TYR     CB   40   2.886   3.641   1.784
    3TYR    HB1   41   2.794   3.606   1.831
    3TYR    HB2   42   2.872   3.747   1.762
    3TYR     CG   43   3.001   3.628   1.882
    3TYR    CD1   44   3.010   3.518   1.969
    3TYR    HD1   45   2.932   3.443   1.971
    3TYR    CE1   46   3.121   3.504   2.054
    3TYR    HE1   47   3.129   3.420   2.121
    3TYR     CZ   48   3.225   3.600   2.051
    3TYR     OH   49   3.334   3.585   2.132
    3TYR     HH   50   3.405   3.646   2.109
    3TYR    CE2   51   3.215   3.710   1.965
    3TYR    HE2   52   3.293   3.784   1.962
    3TYR    CD2   53   3.102   3.726   1.882
    3TYR    HD2   54   3.096   3.812   1.818
    3TYR      C   55   2.866   3.416   1.664
    3TYR      O   56   2.944   3.332   1.709
    4ILE      N   57   2.746   3.383   1.616
    4ILE      H   58   2.691   3.455   1.573
    4ILE     CA   59   2.698   3.244   1.606
    4ILE     HA   60   2.719   3.194   1.700
    4ILE     CB   61   2.546   3.233   1.576
    4ILE     HB   62   2.533   3.239   1.468
    4ILE    CG2   63   2.504   3.092   1.619
    4ILE   HG21   64   2.396   3.083   1.622
    4ILE   HG22   65   2.541   3.019   1.547
    4ILE   HG23   66   2.542   3.068   1.718
    4ILE    CG1   67   2.454   3.344   1.632
    4ILE   HG11   68   2.352   3.326   1.598
    4ILE   HG12   69   2.484   3.441   1.592
    4ILE     CD   70   2.450   3.358   1.783
    4ILE    HD1   71   2.366   3.421   1.812
    4ILE    HD2   72   2.438   3.260   1.827
    4ILE    HD3   73   2.542   3.406   1.815
    4ILE      C   74   2.775   3.168   1.499
    4ILE      O   75   2.820   3.055   1.522
    5GLN      N   76   2.796   3.232   1.384
    5GLN      H   77   2.758   3.325   1.373
    5GLN     CA   78   2.872   3.174   1.275
    5GLN     HA   79   2.834   3.074   1.257
    5GLN     CB   80   2.850   3.258   1.148
    5GLN    HB1   81   2.921   3.341   1.146
    5GLN    HB2   82   2.750   3.302   1.150
    5GLN     CG   83   2.863   3.174   1.020
    5GLN    HG1   84   2.944   3.101   1.030
    5GLN    HG2   85   2.887   3.240   0.936
    5GLN     CD   86   2.733   3.101   0.990
    5GLN    OE1   87   2.713   2.984   1.020
    5GLN    NE2   88   2.636   3.171   0.934
    5GLN   HE21   89   2.652   3.264   0.902
    5GLN   HE22   90   2.546   3.127   0.923
    5GLN      C   91   3.021   3.161   1.311
    5GLN      O   92   3.090   3.079   1.251
    6TRP      N   93   3.074   3.240   1.405
    6TRP      H   94   3.017   3.316   1.441
    6TRP     CA   95   3.211   3.224   1.458
    6TRP     HA   96   3.278   3.196   1.376
    6TRP     CB   97   3.260   3.357   1.516
    6TRP    HB1   98   3.190   3.391   1.592
    6TRP    HB2   99   3.262   3.432   1.437
    6TRP     CG  100   3.397   3.352   1.578
    6TRP    CD1  101   3.514   3.352   1.511
    6TRP    HD1  102   3.523   3.358   1.403
    6TRP    NE1  103   3.619   3.344   1.600
    6TRP    HE1  104   3.717   3.340   1.573
    6TRP    CE2  105   3.576   3.341   1.730
    6TRP    CZ2  106   3.644   3.337   1.853
    6TRP    HZ2  107   3.752   3.336   1.855
    6TRP    CH2  108   3.569   3.336   1.971
    6TRP    HH2  109   3.618   3.336   2.067
    6TRP    CZ3  110   3.428   3.337   1.965
    6TRP    HZ3  111   3.371   3.336   2.056
    6TRP    CE3  112   3.362   3.343   1.841
    6TRP    HE3  113   3.254   3.348   1.838
    6TRP    CD2  114   3.434   3.345   1.720
    6TRP      C  115   3.220   3.109   1.560
    6TRP      O  116   3.312   3.027   1.553
    7LEU      N  117   3.122   3.097   1.650
    7LEU      H  118   3.050   3.168   1.655
    7LEU     CA  119   3.121   2.989   1.750
    7LEU     HA  120   3.221   2.982   1.793
    7LEU     CB  121   3.022   3.021   1.863
    7LEU    HB1  122   3.002   2.929   1.918
    7LEU    HB2  123   2.928   3.055   1.819
    7LEU     CG  124   3.072   3.127   1.963
    7LEU     HG  125   3.088   3.221   1.911
    7LEU    CD1  126   2.967   3.147   2.071
    7LEU   HD11  127   2.993   3.235   2.130
    7LEU   HD12  128   2.872   3.165   2.025
    7LEU   HD13  129   2.960   3.060   2.135
    7LEU    CD2  130   3.199   3.087   2.037
    7LEU   HD21  131   3.225   3.165   2.109
    7LEU   HD22  132   3.183   2.994   2.092
    7LEU   HD23  133   3.283   3.075   1.969
    7LEU      C  134   3.094   2.850   1.690
    7LEU      O  135   3.155   2.754   1.736
    8LYS      N  136   3.010   2.837   1.587
    8LYS      H  137   2.960   2.920   1.555
    8LYS     CA  138   2.983   2.707   1.522
    8LYS     HA  139   2.958   2.636   1.601
    8LYS     CB  140   2.861   2.718   1.429
    8LYS    HB1  141   2.782   2.771   1.482
    8LYS    HB2  142   2.825   2.618   1.408
    8LYS     CG  143   2.886   2.789   1.295
    8LYS    HG1  144   2.966   2.862   1.307
    8LYS    HG2  145   2.795   2.843   1.267
    8LYS     CD  146   2.921   2.691   1.182
    8LYS    HD1  147   2.841   2.619   1.170
    8LYS    HD2  148   3.012   2.636   1.207
    8LYS     CE  149   2.948   2.765   1.051
    8LYS    HE1  150   3.043   2.729   1.009
    8LYS    HE2  151   2.963   2.872   1.073
    8LYS     NZ  152   2.839   2.747   0.953
    8LYS    HZ1  153   2.862   2.795   0.867
    8LYS    HZ2  154   2.821   2.650   0.934
    8LYS    HZ3  155   2.755   2.794   0.988
    8LYS      C  156   3.104   2.646   1.450
    8LYS      O  157   3.110   2.526   1.427
    9ASP      N  158   3.202   2.730   1.416
    9ASP      H  159   3.186   2.829   1.432
    9ASP     CA  160   3.330   2.692   1.358
    9ASP     HA  161   3.316   2.608   1.289
    9ASP     CB  162   3.386   2.812   1.279
    9ASP    HB1  163   3.493   2.820   1.296
    9ASP    HB2  164   3.342   2.905   1.315
    9ASP     CG  165   3.364   2.803   1.127
    9ASP    OD1  166   3.248   2.785   1.083
    9ASP    OD2  167   3.464   2.819   1.054
    9ASP      C  168   3.430   2.644   1.466
    9ASP      O  169   3.538   2.595   1.433
   10GLY      N  170   3.398   2.658   1.596
   10GLY      H  171   3.305   2.692   1.618
   10GLY     CA  172   3.485   2.627   1.710
   10GLY    HA1  173   3.564   2.558   1.679
   10GLY    HA2  174   3.424   2.577   1.786
   10GLY      C  175   3.550   2.749   1.776
   10GLY      O  176   3.647   2.731   1.851
   11GLY      N  177   3.504   2.871   1.745
   11GLY      H  178   3.428   2.878   1.679
   11GLY     CA  179   3.548   2.994   1.811
   11GLY    HA1  180   3.510   2.993   1.913
   11GLY    HA2  181   3.503   3.079   1.760
   11GLY      C  182   3.701   3.013   1.810
   11GLY      O  183   3.762   3.005   1.703
   12PRO      N  184   3.767   3.031   1.926
   12PRO     CD  185   3.711   3.037   2.060
   12PRO    HD1  186   3.700   2.935   2.098
   12PRO    HD2  187   3.615   3.089   2.064
   12PRO     CG  188   3.813   3.113   2.145
   12PRO    HG1  189   3.810   3.080   2.249
   12PRO    HG2  190   3.797   3.220   2.137
   12PRO     CB  191   3.945   3.077   2.079
   12PRO    HB1  192   3.982   2.987   2.127
   12PRO    HB2  193   4.019   3.157   2.089
   12PRO     CA  194   3.912   3.047   1.933
   12PRO     HA  195   3.940   3.133   1.872
   12PRO      C  196   3.990   2.924   1.885
   12PRO      O  197   4.109   2.935   1.856
   13SER      N  198   3.928   2.806   1.877
   13SER      H  199   3.830   2.800   1.903
   13SER     CA  200   3.991   2.683   1.826
   13SER     HA  201   4.098   2.687   1.850
   13SER     CB  202   3.936   2.561   1.900
   13SER    HB1  203   3.991   2.473   1.869
   13SER    HB2  204   3.830   2.548   1.876
   13SER     OG  205   3.950   2.574   2.040
   13SER     HG  206   3.880   2.522   2.082
   13SER      C  207   3.983   2.670   1.673
   13SER      O  208   4.020   2.567   1.619
   14SER      N  209   3.936   2.773   1.601
   14SER      H  210   3.900   2.853   1.652
   14SER     CA  211   3.914   2.771   1.455
   14SER     HA  212   3.938   2.671   1.418
   14SER     CB  213   3.766   2.794   1.427
   14SER    HB1  214   3.743   2.900   1.427
   14SER    HB2  215   3.708   2.748   1.506
   14SER     OG  216   3.730   2.735   1.303
   14SER     HG  217   3.648   2.684   1.319
   14SER      C  218   4.006   2.866   1.376
   14SER      O  219   3.973   2.908   1.265
   15GLY      N  220   4.120   2.905   1.433
   15GLY      H  221   4.147   2.861   1.520
   15GLY     CA  222   4.222   2.984   1.363
   15GLY    HA1  223   4.261   2.927   1.279
   15GLY    HA2  224   4.304   3.005   1.432
   15GLY      C  225   4.171   3.118   1.310
   15GLY      O  226   4.212   3.164   1.204
   16ARG      N  227   4.075   3.175   1.383
   16ARG      H  228   4.042   3.124   1.463
   16ARG     CA  229   4.005   3.297   1.347
   16ARG     HA  230   4.073   3.356   1.285
   16ARG     CB  231   3.884   3.262   1.259
   16ARG    HB1  232   3.923   3.205   1.175
   16ARG    HB2  233   3.839   3.354   1.222
   16ARG     CG  234   3.776   3.175   1.325
   16ARG    HG1  235   3.728   3.233   1.402
   16ARG    HG2  236   3.820   3.088   1.371
   16ARG     CD  237   3.667   3.131   1.225
   16ARG    HD1  238   3.643   3.213   1.157
   16ARG    HD2  239   3.577   3.108   1.282
   16ARG     NE  240   3.704   3.011   1.150
   16ARG     HE  241   3.674   2.922   1.188
   16ARG     CZ  242   3.768   3.001   1.035
   16ARG    NH1  243   3.814   3.103   0.968
   16ARG   HH11  244   3.821   3.193   1.012
   16ARG   HH12  245   3.848   3.090   0.873
   16ARG    NH2  246   3.788   2.883   0.986
   16ARG   HH21  247   3.754   2.804   1.040
   16ARG   HH22  248   3.854   2.869   0.911
   16ARG      C  249   3.970   3.377   1.472
   16ARG      O  250   3.913   3.319   1.565
   17PRO      N  251   4.002   3.507   1.479
   17PRO     CD  252   4.072   3.585   1.378
   17PRO    HD1  253   4.027   3.573   1.279
   17PRO    HD2  254   4.177   3.555   1.376
   17PRO     CG  255   4.059   3.729   1.424
   17PRO    HG1  256   3.966   3.770   1.385
   17PRO    HG2  257   4.145   3.789   1.394
   17PRO     CB  258   4.048   3.718   1.575
   17PRO    HB1  259   3.999   3.805   1.618
   17PRO    HB2  260   4.147   3.704   1.619
   17PRO     CA  261   3.964   3.591   1.591
   17PRO     HA  262   3.992   3.542   1.685
   17PRO      C  263   3.813   3.620   1.591
   17PRO      O  264   3.748   3.611   1.486
   18PRO      N  265   3.756   3.654   1.707
   18PRO     CD  266   3.822   3.675   1.834
   18PRO    HD1  267   3.909   3.740   1.823
   18PRO    HD2  268   3.852   3.579   1.877
   18PRO     CG  269   3.719   3.741   1.924
   18PRO    HG1  270   3.726   3.849   1.914
   18PRO    HG2  271   3.733   3.711   2.026
   18PRO     CB  272   3.586   3.694   1.869
   18PRO    HB1  273   3.506   3.765   1.890
   18PRO    HB2  274   3.561   3.596   1.910
   18PRO     CA  275   3.614   3.683   1.720
   18PRO     HA  276   3.557   3.599   1.679
   18PRO      C  277   3.575   3.811   1.646
   18PRO      O  278   3.658   3.902   1.630
   19PRO      N  279   3.449   3.820   1.601
   19PRO     CD  280   3.345   3.718   1.608
   19PRO    HD1  281   3.317   3.699   1.711
   19PRO    HD2  282   3.380   3.625   1.563
   19PRO     CG  283   3.226   3.770   1.529
   19PRO    HG1  284   3.153   3.810   1.598
   19PRO    HG2  285   3.182   3.693   1.466
   19PRO     CB  286   3.284   3.884   1.445
   19PRO    HB1  287   3.211   3.961   1.425
   19PRO    HB2  288   3.323   3.843   1.352
   19PRO     CA  289   3.400   3.936   1.529
   19PRO     HA  290   3.477   3.972   1.462
   19PRO      C  291   3.359   4.049   1.626
   19PRO      O  292   3.278   4.026   1.717
   20SER      N  293   3.412   4.169   1.605
   20SER      H  294   3.477   4.180   1.528
   20SER     CA  295   3.373   4.290   1.681
   20SER     HA  296   3.360   4.262   1.786
   20SER     CB  297   3.482   4.398   1.676
   20SER    HB1  298   3.448   4.483   1.735
   20SER    HB2  299   3.495   4.430   1.572
   20SER     OG  300   3.605   4.351   1.728
   20SER     HG  301   3.643   4.421   1.783
   20SER      C  302   3.237   4.345   1.635
   20SER    OC1  303   3.158   4.384   1.725
   20SER    OC2  304   3.211   4.346   1.513
   21SOL     OW  305   0.255   0.653   0.096
   21SOL    HW1  306   0.178   0.641   0.152
   21SOL    HW2  307   0.238   0.598   0.020
   22SOL     OW  308   0.214   0.280   0.999
   22SOL    HW1  309   0.249   0.249   1.083
   22SOL    HW2  310   0.134   0.229   0.986
   23SOL     OW  311   4.415   0.366   0.651
   23SOL    HW1  312   4.334   0.414   0.668
   23SOL    HW2  313   4.392   0.305   0.581
   24SOL     OW  314   0.568   1.289   1.176
   24SOL    HW1  315   0.480   1.293   1.139
   24SOL    HW2  316   0.582   1.377   1.211
   25SOL     OW  317   1.562   1.511   0.707
   25SOL    HW1  318   1.519   1.490   0.790
   25SOL    HW2  319   1.491   1.514   0.644
   26SOL     OW  320   1.132   0.698   0.700
   26SOL    HW1  321   1.180   0.780   0.687
   26SOL    HW2  322   1.084   0.710   0.782
   27SOL     OW  323   1.765   0.602   0.226
   27SOL    HW1  324   1.750   0.574   0.136
   27SOL    HW2  325   1.732   0.529   0.279
   28SOL     OW  326   0.754   1.142   1.042
   28SOL    HW1  327   0.685   1.177   1.098
   28SOL    HW2  328   0.790   1.218   0.997
   29SOL     OW  329   0.867   0.774   1.822
   29SOL    HW1  330   0.856   0.845   1.885
   29SOL    HW2  331   0.890   0.818   1.740
   30SOL     OW  332   0.686   1.003   0.647
   30SOL    HW1  333   0.751   0.992   0.716
   30SOL    HW2  334   0.617   1.054   0.687
   31SOL     OW  335   0.711   1.150   1.813
   31SOL    HW1  336   0.759   1.228   1.841
   31SOL    HW2  337   0.629   1.184   1.776
   32SOL     OW  338   0.333   1.422   1.068
   32SOL    HW1  339   0.262   1.385   1.015
   32SOL    HW2  340   0.384   1.475   1.006
   33SOL     OW  341   1.460   1.500   1.356
   33SOL    HW1  342   1.512   1.580   1.365
   33SOL    HW2  343   1.397   1.504   1.427
   34SOL     OW  344   0.453   0.404   1.492
   34SOL    HW1  345   0.531   0.349   1.492
   34SOL    HW2  346   0.380   0.343   1.501
   35SOL     OW  347   1.611   0.460   0.737
   35SOL    HW1  348   1.534   0.476   0.682
   35SOL    HW2  349   1.623   0.542   0.786
   36SOL     OW  350   0.219   1.710   0.472
   36SOL    HW1  351   0.244   1.783   0.528
   36SOL    HW2  352   0.290   1.704   0.408
   37SOL     OW  353   1.137   1.342   1.693
   37SOL    HW1  354   1.177   1.337   1.780
   37SOL    HW2  355   1.085   1.262   1.686
   38SOL     OW  356   0.245   1.440   0.532
   38SOL    HW1  357   0.210   1.529   0.530
   38SOL    HW2  358   0.178   1.388   0.576
   39SOL     OW  359   0.257   1.088   0.890
   39SOL    HW1  360   0.261   1.002   0.931
   39SOL    HW2  361   0.192   1.136   0.942
   40SOL     OW  362   0.613   1.791   1.429
   40SOL    HW1  363   0.531   1.772   1.474
   40SOL    HW2  364   0.634   1.881   1.454
   41SOL     OW  365   0.592   0.979   0.144
   41SOL    HW1  366   0.616   1.041   0.075
   41SOL    HW2  367   0.636   1.011   0.222
   42SOL     OW  368   1.571   0.122   1.468
   42SOL    HW1  369   1.599   0.197   1.415
   42SOL    HW2  370   1.572   0.155   1.558
   43SOL     OW  371   0.134   0.633   0.568
   43SOL    HW1  372   0.100   0.554   0.609
   43SOL    HW2  373   0.132   0.699   0.638
   44SOL     OW  374   1.829   1.776   0.344
   44SOL    HW1  375   1.891   1.744   0.409
   44SOL    HW2  376   1.864   1.860   0.317
   45SOL     OW  377   0.074   1.587   0.174
   45SOL    HW1  378   0.036   1.500   0.188
   45SOL    HW2  379   0.016   1.647   0.221
   46SOL     OW  380   1.689   0.918   0.641
   46SOL    HW1  381   1.772   0.877   0.617
   46SOL    HW2  382   1.665   0.971   0.565
   47SOL     OW  383   1.643   1.105   0.431
   47SOL    HW1  384   1.727   1.109   0.386
   47SOL    HW2  385   1.651   1.168   0.503
   48SOL     OW  386   0.146   0.756   1.564
   48SOL    HW1  387   0.241   0.759   1.562
   48SOL    HW2  388   0.120   0.841   1.600
   49SOL     OW  389   0.615   1.386   0.736
   49SOL    HW1  390   0.568   1.303   0.746
   49SOL    HW2  391   0.597   1.413   0.645
   50SOL     OW  392   1.288   1.238   1.423
   50SOL    HW1  393   1.320   1.170   1.363
   50SOL    HW2  394   1.346   1.232   1.499
   51SOL     OW  395   0.817   0.039   0.571
   51SOL    HW1  396   0.846   0.123   0.535
   51SOL    HW2  397   0.723   0.037   0.554
   52SOL     OW  398   0.174   0.935   1.274
   52SOL    HW1  399   0.266   0.908   1.265
   52SOL    HW2  400   0.133   0.905   1.194
   53SOL     OW  401   1.514   0.998   0.200
   53SOL    HW1  402   1.451   0.940   0.243
   53SOL    HW2  403   1.569   1.031   0.271
   54SOL     OW  404   1.186   1.808   1.623
   54SOL    HW1  405   1.195   1.866   1.548
   54SOL    HW2  406   1.202   1.720   1.587
   55SOL     OW  407   0.318   0.262   1.758
   55SOL    HW1  408   0.375   0.324   1.804
   55SOL    HW2  409   0.232   0.274   1.797
   56SOL     OW  410   1.467   1.419   0.951
   56SOL    HW1  411   1.399   1.435   1.017
   56SOL    HW2  412   1.454   1.328   0.924
   57SOL     OW  413   1.652   1.744   0.584
   57SOL    HW1  414   1.637   1.715   0.494
   57SOL    HW2  415   1.630   1.668   0.637
   58SOL     OW  416   0.601   0.725   0.269
   58SOL    HW1  417   0.604   0.805   0.217
   58SOL    HW2  418   0.534   0.742   0.335
   59SOL     OW  419   1.281   0.354   0.933
   59SOL    HW1  420   1.191   0.323   0.939
   59SOL    HW2  421   1.329   0.299   0.995
   60SOL     OW  422   1.576   1.676   0.313
   60SOL    HW1  423   1.665   1.710   0.307
   60SOL    HW2  424   1.552   1.656   0.222
   61SOL     OW  425   0.795   0.616   1.452
   61SOL    HW1  426   0.766   0.592   1.540
   61SOL    HW2  427   0.753   0.552   1.394
   62SOL     OW  428   1.397   0.475   1.679
   62SOL    HW1  429   1.397   0.521   1.764
   62SOL    HW2  430   1.463   0.407   1.688
   63SOL     OW  431   0.954   0.887   1.583
   63SOL    HW1  432   1.008   0.817   1.547
   63SOL    HW2  433   0.905   0.922   1.508
   64SOL     OW  434   0.998   0.425   1.233
   64SOL    HW1  435   0.917   0.428   1.285
   64SOL    HW2  436   0.976   0.370   1.158
   65SOL     OW  437   1.053   0.700   0.428
   65SOL    HW1  438   1.070   0.693   0.522
   65SOL    HW2  439   0.969   0.655   0.415
   66SOL     OW  440   0.120   0.829   0.769
   66SOL    HW1  441   0.197   0.820   0.824
   66SOL    HW2  442   0.057   0.879   0.821
   67SOL     OW  443   0.131   1.868   1.585
   67SOL    HW1  444   0.135   1.857   1.680
   67SOL    HW2  445   0.038   1.862   1.564
   68SOL     OW  446   0.841   0.368   0.198
   68SOL    HW1  447   0.908   0.421   0.154
   68SOL    HW2  448   0.853   0.280   0.161
   69SOL     OW  449   1.707   0.572   1.827
   69SOL    HW1  450   1.670   0.647   1.781
   69SOL    HW2  451   1.739   0.514   1.758
   70SOL     OW  452   1.378   1.140   0.541
   70SOL    HW1  453   1.458   1.128   0.488
   70SOL    HW2  454   1.326   1.204   0.492
   71SOL     OW  455   0.599   0.192   0.901
   71SOL    HW1  456   0.571   0.219   0.989
   71SOL    HW2  457   0.562   0.258   0.843
   72SOL     OW  458   1.002   1.444   0.472
   72SOL    HW1  459   0.967   1.518   0.423
   72SOL    HW2  460   0.983   1.464   0.564
   73SOL     OW  461   0.356   1.813   0.883
   73SOL    HW1  462   0.398   1.727   0.886
   73SOL    HW2  463   0.428   1.876   0.894
   74SOL     OW  464   1.799   1.054   0.870
   74SOL    HW1  465   1.745   1.040   0.792
   74SOL    HW2  466   1.736   1.061   0.942
   75SOL     OW  467   1.228   1.539   1.513
   75SOL    HW1  468   1.214   1.466   1.574
   75SOL    HW2  469   1.163   1.525   1.444
   76SOL     OW  470   0.320   0.948   0.239
   76SOL    HW1  471   0.405   0.966   0.199
   76SOL    HW2  472   0.286   0.872   0.192
   77SOL     OW  473   1.479   0.744   0.726
   77SOL    HW1  474   1.471   0.704   0.812
   77SOL    HW2  475   1.556   0.801   0.734
   78SOL     OW  476   0.468   1.261   1.734
   78SOL    HW1  477   0.440   1.269   1.643
   78SOL    HW2  478   0.387   1.260   1.784
   79SOL     OW  479   1.109   1.779   0.216
   79SOL    HW1  480   1.054   1.731   0.277
   79SOL    HW2  481   1.136   1.713   0.151
   80SOL     OW  482   0.210   0.279   1.493
   80SOL    HW1  483   0.138   0.342   1.483
   80SOL    HW2  484   0.209   0.255   1.585
   81SOL     OW  485   1.596   1.371   0.139
   81SOL    HW1  486   1.580   1.454   0.093
   81SOL    HW2  487   1.539   1.308   0.094
   82SOL     OW  488   0.465   1.733   0.323
   82SOL    HW1  489   0.505   1.791   0.387
   82SOL    HW2  490   0.538   1.705   0.267
   83SOL     OW  491   1.387   0.152   0.397
   83SOL    HW1  492   1.375   0.092   0.324
   83SOL    HW2  493   1.473   0.129   0.434
   84SOL     OW  494   0.254   1.791   1.233
   84SOL    HW1  495   0.301   1.719   1.274
   84SOL    HW2  496   0.233   1.760   1.145
   85SOL     OW  497   0.938   1.699   0.898
   85SOL    HW1  498   1.015   1.647   0.921
   85SOL    HW2  499   0.895   1.649   0.830
   86SOL     OW  500   0.398   0.701   0.470
   86SOL    HW1  501   0.422   0.610   0.489
   86SOL    HW2  502   0.305   0.705   0.493
   87SOL     OW  503   1.540   0.220   1.729
   87SOL    HW1  504   1.548   0.244   1.821
   87SOL    HW2  505   1.458   0.170   1.724
   88SOL     OW  506   0.613   0.116   0.115
   88SOL    HW1  507   0.708   0.099   0.117
   88SOL    HW2  508   0.591   0.118   0.022
   89SOL     OW  509   0.768   0.280   1.761
   89SOL    HW1  510   0.840   0.217   1.760
   89SOL    HW2  511   0.720   0.259   1.842
   90SOL     OW  512   0.876   1.522   1.194
   90SOL    HW1  513   0.860   1.485   1.107
   90SOL    HW2  514   0.946   1.468   1.230
   91SOL     OW  515   1.341   0.589   1.432
   91SOL    HW1  516   1.372   0.559   1.518
   91SOL    HW2  517   1.375   0.678   1.424
   92SOL     OW  518   0.816   1.394   0.941
   92SOL    HW1  519   0.900   1.382   0.897
   92SOL    HW2  520   0.752   1.396   0.870
   93SOL     OW  521   0.929   0.512   0.903
   93SOL    HW1  522   0.904   0.503   0.811
   93SOL    HW2  523   0.958   0.424   0.929
   94SOL     OW  524   0.568   0.053   0.491
   94SOL    HW1  525   0.498   0.041   0.555
   94SOL    HW2  526   0.544   0.133   0.444
   95SOL     OW  527   1.419   1.187   0.028
   95SOL    HW1  528   1.455   1.117   0.082
   95SOL    HW2  529   1.337   1.210   0.071
   96SOL     OW  530   0.326   0.068   0.137
   96SOL    HW1  531   0.420   0.077   0.154
   96SOL    HW2  532   0.295   0.008   0.204
   97SOL     OW  533   0.929   0.265   0.460
   97SOL    HW1  534   0.899   0.305   0.378
   97SOL    HW2  535   1.024   0.280   0.461
   98SOL     OW  536   1.079   0.681   1.460
   98SOL    HW1  537   1.009   0.617   1.461
   98SOL    HW2  538   1.159   0.629   1.451
   99SOL     OW  539   1.223   1.570   0.794
   99SOL    HW1  540   1.239   1.636   0.727
   99SOL    HW2  541   1.291   1.584   0.859
  100SOL     OW  542   0.470   1.150   0.734
  100SOL    HW1  543   0.399   1.131   0.796
  100SOL    HW2  544   0.431   1.134   0.648
  101SOL     OW  545   1.267   1.794   0.607
  101SOL    HW1  546   1.315   1.856   0.552
  101SOL    HW2  547   1.201   1.847   0.651
  102SOL     OW  548   1.012   0.541   0.059
  102SOL    HW1  549   1.007   0.598  -0.018
  102SOL    HW2  550   1.084   0.576   0.111
  103SOL     OW  551   0.089   0.536   1.387
  103SOL    HW1  552   0.177   0.542   1.351
  103SOL    HW2  553   0.086   0.605   1.453
  104SOL     OW  554   0.561   0.230   1.172
  104SOL    HW1  555   0.604   0.157   1.217
  104SOL    HW2  556   0.469   0.222   1.197
  105SOL     OW  557   0.866   0.467   0.643
  105SOL    HW1  558   0.820   0.522   0.579
  105SOL    HW2  559   0.887   0.388   0.594
  106SOL     OW  560   1.007   0.053   0.764
  106SOL    HW1  561   0.936   0.050   0.700
  106SOL    HW2  562   0.996  -0.027   0.816
  107SOL     OW  563   1.438   1.162   0.857
  107SOL    HW1  564   1.368   1.097   0.855
  107SOL    HW2  565   1.464   1.173   0.766
  108SOL     OW  566   1.465   0.606   0.975
  108SOL    HW1  567   1.412   0.527   0.980
  108SOL    HW2  568   1.525   0.599   1.050
  109SOL     OW  569   1.850   0.815   0.379
  109SOL    HW1  570   1.904   0.762   0.439
  109SOL    HW2  571   1.819   0.752   0.314
  110SOL     OW  572   0.495   1.408   0.161
  110SOL    HW1  573   0.422   1.382   0.218
  110SOL    HW2  574   0.453   1.434   0.079
  111SOL     OW  575   1.671   1.262   0.649
  111SOL    HW1  576   1.766   1.266   0.659
  111SOL    HW2  577   1.642   1.352   0.667
  112SOL     OW  578   1.400   0.581   0.084
  112SOL    HW1  579   1.340   0.562   0.156
  112SOL    HW2  580   1.458   0.504   0.080
  113SOL     OW  581   0.518   0.264   0.326
  113SOL    HW1  582   0.563   0.214   0.258
  113SOL    HW2  583   0.506   0.351   0.287
  114SOL     OW  584   1.752   1.240   1.572
  114SOL    HW1  585   1.840   1.201   1.567
  114SOL    HW2  586   1.767   1.330   1.601
  115SOL     OW  587   1.058   1.354   1.333
  115SOL    HW1  588   0.983   1.322   1.384
  115SOL    HW2  589   1.133   1.312   1.375
  116SOL     OW  590   1.608   1.626   1.655
  116SOL    HW1  591   1.602   1.660   1.565
  116SOL    HW2  592   1.691   1.578   1.656
  117SOL     OW  593   1.130   1.205   1.105
  117SOL    HW1  594   1.070   1.242   1.170
  117SOL    HW2  595   1.098   1.237   1.021
  118SOL     OW  596   1.627   1.097   1.077
  118SOL    HW1  597   1.622   1.160   1.150
  118SOL    HW2  598   1.549   1.115   1.025
  119SOL     OW  599   0.908   0.169   1.376
  119SOL    HW1  600   0.930   0.120   1.297
  119SOL    HW2  601   0.990   0.175   1.424
  120SOL     OW  602   0.984   1.115   1.723
  120SOL    HW1  603   0.893   1.132   1.744
  120SOL    HW2  604   0.982   1.037   1.667
  121SOL     OW  605   0.714   1.067   0.374
  121SOL    HW1  606   0.695   1.048   0.466
  121SOL    HW2  607   0.789   1.011   0.353
  122SOL     OW  608   0.422   0.818   1.254
  122SOL    HW1  609   0.492   0.825   1.319
  122SOL    HW2  610   0.389   0.729   1.264
  123SOL     OW  611   1.269   0.386   1.266
  123SOL    HW1  612   1.300   0.462   1.315
  123SOL    HW2  613   1.178   0.407   1.243
  124SOL     OW  614   0.061   1.578   1.334
  124SOL    HW1  615   0.054   1.668   1.304
  124SOL    HW2  616   0.155   1.564   1.347
  125SOL     OW  617   0.352   1.106   0.489
  125SOL    HW1  618   0.342   1.180   0.429
  125SOL    HW2  619   0.350   1.029   0.432
  126SOL     OW  620   0.551   0.540   0.861
  126SOL    HW1  621   0.567   0.597   0.786
  126SOL    HW2  622   0.619   0.563   0.924
  127SOL     OW  623   1.248   1.347   0.398
  127SOL    HW1  624   1.304   1.419   0.427
  127SOL    HW2  625   1.161   1.370   0.430
  128SOL     OW  626   1.282   1.458   1.147
  128SOL    HW1  627   1.338   1.461   1.225
  128SOL    HW2  628   1.227   1.381   1.160
  129SOL     OW  629   1.584   0.628   0.483
  129SOL    HW1  630   1.534   0.678   0.547
  129SOL    HW2  631   1.618   0.693   0.422
  130SOL     OW  632   0.344   1.532   1.313
  130SOL    HW1  633   0.331   1.486   1.231
  130SOL    HW2  634   0.439   1.542   1.321
  131SOL     OW  635   0.420   0.739   1.598
  131SOL    HW1  636   0.481   0.783   1.540
  131SOL    HW2  637   0.463   0.656   1.620
  132SOL     OW  638   1.602   0.778   1.682
  132SOL    HW1  639   1.516   0.820   1.676
  132SOL    HW2  640   1.655   0.820   1.614
  133SOL     OW  641   0.989   0.101   1.739
  133SOL    HW1  642   1.042   0.180   1.734
  133SOL    HW2  643   1.020   0.047   1.666
  134SOL     OW  644   0.490   0.047   1.763
  134SOL    HW1  645   0.514   0.019   1.674
  134SOL    HW2  646   0.426   0.117   1.749
  135SOL     OW  647   0.589   0.875   1.034
  135SOL    HW1  648   0.619   0.966   1.032
  135SOL    HW2  649   0.532   0.870   1.111
  136SOL     OW  650   1.356   0.858   1.028
  136SOL    HW1  651   1.272   0.849   0.984
  136SOL    HW2  652   1.397   0.772   1.022
  137SOL     OW  653   1.207   0.533   0.272
  137SOL    HW1  654   1.213   0.454   0.325
  137SOL    HW2  655   1.164   0.597   0.328
  138SOL     OW  656   0.300   0.189   1.246
  138SOL    HW1  657   0.269   0.224   1.330
  138SOL    HW2  658   0.299   0.094   1.258
  139SOL     OW  659   0.038   1.311   1.273
  139SOL    HW1  660   0.073   1.261   1.346
  139SOL    HW2  661   0.036   1.402   1.304
  140SOL     OW  662   0.725   0.631   1.058
  140SOL    HW1  663   0.801   0.614   1.001
  140SOL    HW2  664   0.699   0.720   1.036
  141SOL     OW  665   1.735   0.959   1.853
  141SOL    HW1  666   1.689   0.897   1.797
  141SOL    HW2  667   1.676   0.973   1.927
  142SOL     OW  668   0.359   0.068   0.670
  142SOL    HW1  669   0.318   0.146   0.632
  142SOL    HW2  670   0.299  -0.003   0.648
  143SOL     OW  671   1.624   0.384   0.368
  143SOL    HW1  672   1.650   0.318   0.432
  143SOL    HW2  673   1.596   0.458   0.420
  144SOL     OW  674   1.029   0.760   0.961
  144SOL    HW1  675   1.024   0.777   1.055
  144SOL    HW2  676   1.002   0.668   0.952
  145SOL     OW  677   0.983   1.567   1.718
  145SOL    HW1  678   0.967   1.610   1.634
  145SOL    HW2  679   1.026   1.484   1.694
  146SOL     OW  680   1.854   1.505   1.605
  146SOL    HW1  681   1.873   1.531   1.515
  146SOL    HW2  682   1.935   1.522   1.653
  147SOL     OW  683   0.368   0.927   1.797
  147SOL    HW1  684   0.445   0.950   1.848
  147SOL    HW2  685   0.400   0.866   1.730
  148SOL     OW  686   1.549   0.274   0.131
  148SOL    HW1  687   1.485   0.209   0.157
  148SOL    HW2  688   1.580   0.312   0.214
  149SOL     OW  689   1.284   0.820   0.030
  149SOL    HW1  690   1.329   0.737   0.045
  149SOL    HW2  691   1.334   0.862  -0.040
  150SOL     OW  692   1.066   1.336   0.854
  150SOL    HW1  693   1.070   1.264   0.792
  150SOL    HW2  694   1.127   1.401   0.819
  151SOL     OW  695   0.319   0.811   0.954
  151SOL    HW1  696   0.413   0.828   0.950
  151SOL    HW2  697   0.313   0.721   0.985
  152SOL     OW  698   0.332   0.525   1.016
  152SOL    HW1  699   0.293   0.439   0.999
  152SOL    HW2  700   0.407   0.530   0.956
  153SOL     OW  701   1.136   0.391   1.673
  153SOL    HW1  702   1.086   0.455   1.723
  153SOL    HW2  703   1.225   0.426   1.673
  154SOL     OW  704   1.176   0.218   1.465
  154SOL    HW1  705   1.159   0.279   1.537
  154SOL    HW2  706   1.211   0.273   1.395
  155SOL     OW  707   4.377   1.325   0.238
  155SOL    HW1  708   4.289   1.315   0.204
  155SOL    HW2  709   4.407   1.235   0.255
  156SOL     OW  710   0.095   1.758   0.941
  156SOL    HW1  711   0.062   1.741   0.853
  156SOL    HW2  712   0.183   1.791   0.927
  157SOL     OW  713   0.497   1.573   0.908
  157SOL    HW1  714   0.567   1.636   0.930
  157SOL    HW2  715   0.540   1.510   0.849
  158SOL     OW  716   0.981   0.793   1.226
  158SOL    HW1  717   1.037   0.770   1.301
  158SOL    HW2  718   0.898   0.750   1.246
  159SOL     OW  719   0.042   0.554   1.100
  159SOL    HW1  720   0.133   0.536   1.080
  159SOL    HW2  721   0.036   0.542   1.195
  160SOL     OW  722   0.174   0.523   1.697
  160SOL    HW1  723   0.254   0.497   1.651
  160SOL    HW2  724   0.147   0.604   1.654
  161SOL     OW  725   1.378   0.938   1.658
  161SOL    HW1  726   1.399   1.031   1.656
  161SOL    HW2  727   1.374   0.912   1.566
  162SOL     OW  728   0.814   0.579   0.372
  162SOL    HW1  729   0.812   0.505   0.311
  162SOL    HW2  730   0.744   0.636   0.341
  163SOL     OW  731   1.643   0.600   1.184
  163SOL    HW1  732   1.632   0.543   1.259
  163SOL    HW2  733   1.730   0.578   1.150
  164SOL     OW  734   0.274   1.563   1.736
  164SOL    HW1  735   0.227   1.607   1.808
  164SOL    HW2  736   0.253   1.471   1.748
  165SOL     OW  737   0.694   0.456   1.262
  165SOL    HW1  738   0.647   0.378   1.231
  165SOL    HW2  739   0.695   0.515   1.187
  166SOL     OW  740   0.928   1.679   1.468
  166SOL    HW1  741   0.901   1.643   1.383
  166SOL    HW2  742   0.922   1.774   1.457
  167SOL     OW  743   0.465   0.506   0.189
  167SOL    HW1  744   0.534   0.567   0.214
  167SOL    HW2  745   0.387   0.561   0.178
  168SOL     OW  746   0.161   1.144   1.450
  168SOL    HW1  747   0.142   1.106   1.535
  168SOL    HW2  748   0.172   1.069   1.391
  169SOL     OW  749   1.325   1.046   1.223
  169SOL    HW1  750   1.348   0.983   1.154
  169SOL    HW2  751   1.256   1.099   1.184
  170SOL     OW  752   1.308   0.853   0.311
  170SOL    HW1  753   1.233   0.823   0.362
  170SOL    HW2  754   1.283   0.838   0.220
  171SOL     OW  755   1.773   1.743   1.151
  171SOL    HW1  756   1.833   1.769   1.081
  171SOL    HW2  757   1.748   1.653   1.130
  172SOL     OW  758   1.241   1.733   1.112
  172SOL    HW1  759   1.323   1.754   1.068
  172SOL    HW2  760   1.247   1.640   1.131
  173SOL     OW  761   0.071   1.233   1.019
  173SOL    HW1  762   0.063   1.259   1.111
  173SOL    HW2  763  -0.007   1.269   0.977
  174SOL     OW  764   0.679   1.667   1.731
  174SOL    HW1  765   0.622   1.744   1.726
  174SOL    HW2  766   0.743   1.679   1.662
  175SOL     OW  767   0.894   0.096   0.103
  175SOL    HW1  768   0.972   0.150   0.094
  175SOL    HW2  769   0.905   0.054   0.188
  176SOL     OW  770   1.741   0.163   0.504
  176SOL    HW1  771   1.806   0.169   0.434
  176SOL    HW2  772   1.767   0.086   0.555
  177SOL     OW  773   1.390   1.568   0.487
  177SOL    HW1  774   1.451   1.599   0.420
  177SOL    HW2  775   1.343   1.646   0.516
  178SOL     OW  776   0.134   1.809   1.853
  178SOL    HW1  777   0.093   1.740   1.906
  178SOL    HW2  778   0.198   1.850   1.911
  179SOL     OW  779   1.277   0.926   0.671
  179SOL    HW1  780   1.351   0.865   0.678
  179SOL    HW2  781   1.311   0.999   0.618
  180SOL     OW  782   0.813   1.274   1.429
  180SOL    HW1  783   0.785   1.313   1.512
  180SOL    HW2  784   0.742   1.295   1.367
  181SOL     OW  785   0.667   1.618   0.170
  181SOL    HW1  786   0.678   1.625   0.075
  181SOL    HW2  787   0.625   1.533   0.183
  182SOL     OW  788   1.625   1.727   1.391
  182SOL    HW1  789   1.675   1.733   1.310
  182SOL    HW2  790   1.611   1.817   1.418
  183SOL     OW  791   1.823   0.166   0.999
  183SOL    HW1  792   1.857   0.103   0.936
  183SOL    HW2  793   1.738   0.191   0.964
  184SOL     OW  794   0.283   0.354   0.736
  184SOL    HW1  795   0.195   0.366   0.699
  184SOL    HW2  796   0.268   0.333   0.828
  185SOL     OW  797   1.184   1.596   0.023
  185SOL    HW1  798   1.194   1.508   0.060
  185SOL    HW2  799   1.180   1.581  -0.071
  186SOL     OW  800   0.823   1.006   1.373
  186SOL    HW1  801   0.867   1.000   1.288
  186SOL    HW2  802   0.822   1.099   1.394
  187SOL     OW  803   0.919   0.914   0.296
  187SOL    HW1  804   0.978   0.945   0.228
  187SOL    HW2  805   0.966   0.842   0.339
  188SOL     OW  806   1.494   1.639   0.047
  188SOL    HW1  807   1.410   1.605   0.018
  188SOL    HW2  808   1.539   1.664  -0.034
  189SOL     OW  809   0.372   1.309   1.490
  189SOL    HW1  810   0.356   1.388   1.439
  189SOL    HW2  811   0.297   1.253   1.473
  190SOL     OW  812   1.610   1.283   1.280
  190SOL    HW1  813   1.670   1.271   1.354
  190SOL    HW2  814   1.550   1.351   1.309
  191SOL     OW  815   1.053   1.108   0.707
  191SOL    HW1  816   0.982   1.057   0.746
  191SOL    HW2  817   1.116   1.042   0.676
  192SOL     OW  818   1.024   0.246   0.963
  192SOL    HW1  819   1.016   0.196   0.881
  192SOL    HW2  820   1.016   0.179   1.032
  193SOL     OW  821   0.606   1.490   0.481
  193SOL    HW1  822   0.638   1.439   0.406
  193SOL    HW2  823   0.529   1.536   0.447
  194SOL     OW  824   1.723   0.393   1.381
  194SOL    HW1  825   1.794   0.457   1.381
  194SOL    HW2  826   1.757   0.319   1.331
  195SOL     OW  827   0.264   1.341   0.285
  195SOL    HW1  828   0.171   1.344   0.261
  195SOL    HW2  829   0.267   1.379   0.373
  196SOL     OW  830   0.124   1.016   1.685
  196SOL    HW1  831   0.058   1.013   1.754
  196SOL    HW2  832   0.207   1.020   1.731
  197SOL     OW  833   0.661   0.217   1.502
  197SOL    HW1  834   0.740   0.197   1.450
  197SOL    HW2  835   0.694   0.233   1.590
  198SOL     OW  836   2.226   2.586   3.084
  198SOL    HW1  837   2.182   2.507   3.053
  198SOL    HW2  838   2.315   2.580   3.049
  199SOL     OW  839   1.429   0.858   1.399
  199SOL    HW1  840   1.380   0.919   1.344
  199SOL    HW2  841   1.518   0.861   1.365
  200SOL     OW  842   0.042   0.158   0.237
  200SOL    HW1  843   0.106   0.230   0.232
  200SOL    HW2  844   0.094   0.082   0.262
  201SOL     OW  845   1.179   1.341   0.134
  201SOL    HW1  846   1.109   1.275   0.136
  201SOL    HW2  847   1.213   1.342   0.223
  202SOL     OW  848   0.621   0.830   1.436
  202SOL    HW1  849   0.677   0.906   1.420
  202SOL    HW2  850   0.682   0.756   1.443
  203SOL     OW  851   1.483   1.778   0.980
  203SOL    HW1  852   1.507   1.837   0.908
  203SOL    HW2  853   1.566   1.756   1.022
  204SOL     OW  854   0.715   0.564   1.704
  204SOL    HW1  855   0.757   0.624   1.765
  204SOL    HW2  856   0.739   0.477   1.736
  205SOL     OW  857   1.472   1.199   1.631
  205SOL    HW1  858   1.460   1.213   1.725
  205SOL    HW2  859   1.565   1.215   1.617
  206SOL     OW  860   0.382   1.743   1.564
  206SOL    HW1  861   0.297   1.785   1.547
  206SOL    HW2  862   0.361   1.665   1.614
  207SOL     OW  863   1.669   0.881   1.255
  207SOL    HW1  864   1.662   0.796   1.211
  207SOL    HW2  865   1.659   0.945   1.185
  208SOL     OW  866   1.199   0.330   0.463
  208SOL    HW1  867   1.263   0.263   0.440
  208SOL    HW2  868   1.236   0.374   0.539
  209SOL     OW  869   0.591   0.739   0.669
  209SOL    HW1  870   0.630   0.826   0.656
  209SOL    HW2  871   0.523   0.733   0.602
  210SOL     OW  872   1.762   0.360   1.650
  210SOL    HW1  873   1.745   0.376   1.557
  210SOL    HW2  874   1.689   0.305   1.679
  211SOL     OW  875   1.745   0.933   1.512
  211SOL    HW1  876   1.741   1.028   1.526
  211SOL    HW2  877   1.730   0.922   1.418
  212SOL     OW  878   0.844   1.405   0.026
  212SOL    HW1  879   0.821   1.374   0.113
  212SOL    HW2  880   0.936   1.433   0.034
  213SOL     OW  881   0.662   1.790   0.943
  213SOL    HW1  882   0.642   1.881   0.921
  213SOL    HW2  883   0.757   1.784   0.936
  214SOL     OW  884   0.868   0.968   0.855
  214SOL    HW1  885   0.918   0.896   0.894
  214SOL    HW2  886   0.832   1.015   0.930
  215SOL     OW  887   1.085   0.999   0.092
  215SOL    HW1  888   1.035   1.004   0.011
  215SOL    HW2  889   1.156   0.937   0.072
  216SOL     OW  890   1.852   1.555   0.845
  216SOL    HW1  891   1.775   1.542   0.790
  216SOL    HW2  892   1.847   1.487   0.911
  217SOL     OW  893   0.229   1.296   1.853
  217SOL    HW1  894   0.149   1.299   1.801
  217SOL    HW2  895   0.200   1.301   1.943
  218SOL     OW  896   0.120   1.211   0.629
  218SOL    HW1  897   0.104   1.175   0.716
  218SOL    HW2  898   0.191   1.158   0.594
  219SOL     OW  899   0.683   1.404   1.629
  219SOL    HW1  900   0.602   1.360   1.657
  219SOL    HW2  901   0.677   1.492   1.667
  220SOL     OW  902   1.816   0.167   1.266
  220SOL    HW1  903   1.762   0.088   1.273
  220SOL    HW2  904   1.830   0.179   1.172
  221SOL     OW  905   0.450   0.449   0.533
  221SOL    HW1  906   0.484   0.371   0.489
  221SOL    HW2  907   0.401   0.415   0.608
  222SOL     OW  908   1.699   1.489   1.097
  222SOL    HW1  909   1.619   1.466   1.049
  222SOL    HW2  910   1.709   1.419   1.161
  223SOL     OW  911   0.339   0.558   1.290
  223SOL    HW1  912   0.395   0.503   1.344
  223SOL    HW2  913   0.356   0.530   1.200
  224SOL     OW  914   0.828   1.577   0.678
  224SOL    HW1  915   0.811   1.634   0.602
  224SOL    HW2  916   0.753   1.519   0.682
  225SOL     OW  917   1.436   0.225   1.118
  225SOL    HW1  918   1.467   0.148   1.166
  225SOL    HW2  919   1.384   0.274   1.181
  226SOL     OW  920   1.011   4.430   1.145
  226SOL    HW1  921   0.942   4.364   1.133
  226SOL    HW2  922   1.091   4.378   1.155
  227SOL     OW  923   0.789   1.325   0.296
  227SOL    HW1  924   0.752   1.239   0.317
  227SOL    HW2  925   0.859   1.337   0.361
  228SOL     OW  926   0.620   1.555   1.285
  228SOL    HW1  927   0.622   1.637   1.335
  228SOL    HW2  928   0.707   1.548   1.247
  229SOL     OW  929   1.359   0.045   0.136
  229SOL    HW1  930   1.418  -0.012   0.085
  229SOL    HW2  931   1.296  -0.015   0.175
  230SOL     OW  932   1.301   0.464   0.682
  230SOL    HW1  933   1.246   0.543   0.689
  230SOL    HW2  934   1.294   0.423   0.769
  231SOL     OW  935   1.592   0.232   0.881
  231SOL    HW1  936   1.528   0.241   0.952
  231SOL    HW2  937   1.589   0.315   0.835
  232SOL     OW  938   0.059   1.069   0.289
  232SOL    HW1  939   0.147   1.034   0.274
  232SOL    HW2  940   0.004   0.991   0.300
  233SOL     OW  941   0.887   1.656   0.343
  233SOL    HW1  942   0.812   1.638   0.286
  233SOL    HW2  943   0.858   1.729   0.398
  234SOL     OW  944   0.276   0.585   1.949
  234SOL    HW1  945   0.218   0.606   2.023
  234SOL    HW2  946   0.220   0.592   1.872
  235SOL     OW  947   0.221   0.283   2.864
  235SOL    HW1  948   0.246   0.245   2.948
  235SOL    HW2  949   0.161   0.219   2.825
  236SOL     OW  950   4.410   0.347   2.511
  236SOL    HW1  951   4.340   0.408   2.533
  236SOL    HW2  952   4.370   0.286   2.449
  237SOL     OW  953   0.561   1.308   3.032
  237SOL    HW1  954   0.481   1.324   2.982
  237SOL    HW2  955   0.587   1.395   3.064
  238SOL     OW  956   1.561   1.512   2.570
  238SOL    HW1  957   1.517   1.491   2.652
  238SOL    HW2  958   1.490   1.516   2.506
  239SOL     OW  959   1.132   0.698   2.562
  239SOL    HW1  960   1.180   0.780   2.549
  239SOL    HW2  961   1.084   0.710   2.644
  240SOL     OW  962   1.769   0.604   2.090
  240SOL    HW1  963   1.746   0.596   1.997
  240SOL    HW2  964   1.733   0.526   2.131
  241SOL     OW  965   0.761   1.144   2.904
  241SOL    HW1  966   0.688   1.172   2.960
  241SOL    HW2  967   0.790   1.225   2.860
  242SOL     OW  968   0.686   1.003   2.508
  242SOL    HW1  969   0.751   0.991   2.577
  242SOL    HW2  970   0.617   1.055   2.550
  243SOL     OW  971   0.330   1.427   2.928
  243SOL    HW1  972   0.261   1.383   2.878
  243SOL    HW2  973   0.377   1.478   2.863
  244SOL     OW  974   3.662   3.696   0.086
  244SOL    HW1  975   3.713   3.775   0.101
  244SOL    HW2  976   3.609   3.686   0.165
  245SOL     OW  977   2.643   2.561   0.228
  245SOL    HW1  978   2.713   2.495   0.223
  245SOL    HW2  979   2.564   2.510   0.247
  246SOL     OW  980   1.612   0.461   2.599
  246SOL    HW1  981   1.535   0.476   2.543
  246SOL    HW2  982   1.621   0.542   2.650
  247SOL     OW  983   0.221   1.710   2.321
  247SOL    HW1  984   0.241   1.778   2.386
  247SOL    HW2  985   0.300   1.706   2.266
  248SOL     OW  986   0.243   1.442   2.397
  248SOL    HW1  987   0.208   1.531   2.393
  248SOL    HW2  988   0.175   1.391   2.441
  249SOL     OW  989   0.261   1.091   2.755
  249SOL    HW1  990   0.263   1.004   2.793
  249SOL    HW2  991   0.195   1.138   2.805
  250SOL     OW  992   2.782   3.979   0.192
  250SOL    HW1  993   2.690   4.005   0.201
  250SOL    HW2  994   2.830   4.061   0.200
  251SOL     OW  995   0.583   0.986   1.998
  251SOL    HW1  996   0.630   1.033   1.930
  251SOL    HW2  997   0.622   1.016   2.080
  252SOL     OW  998   3.842   2.287   0.253
  252SOL    HW1  999   3.803   2.348   0.191
  252SOL    HW2 1000   3.824   2.325   0.339
  253SOL     OW 1001   0.164   0.641   2.465
  253SOL    HW1 1002   0.090   0.579   2.462
  253SOL    HW2 1003   0.138   0.706   2.530
  254SOL     OW 1004   1.843   1.758   2.196
  254SOL    HW1 1005   1.907   1.730   2.261
  254SOL    HW2 1006   1.865   1.849   2.177
  255SOL     OW 1007   0.037   1.606   2.005
  255SOL    HW1 1008   0.023   1.512   1.996
  255SOL    HW2 1009   0.027   1.623   2.098
  256SOL     OW 1010   1.690   0.920   2.504
  256SOL    HW1 1011   1.772   0.876   2.480
  256SOL    HW2 1012   1.666   0.970   2.426
  257SOL     OW 1013   1.647   1.106   2.291
  257SOL    HW1 1014   1.733   1.111   2.249
  257SOL    HW2 1015   1.651   1.168   2.364
  258SOL     OW 1016   0.613   1.387   2.598
  258SOL    HW1 1017   0.567   1.303   2.607
  258SOL    HW2 1018   0.597   1.413   2.507
  259SOL     OW 1019   3.485   3.428   0.193
  259SOL    HW1 1020   3.505   3.365   0.124
  259SOL    HW2 1021   3.559   3.423   0.253
  260SOL     OW 1022   0.818   0.029   2.412
  260SOL    HW1 1023   0.846   0.117   2.387
  260SOL    HW2 1024   0.722   0.032   2.406
  261SOL     OW 1025   0.183   0.951   3.117
  261SOL    HW1 1026   0.269   0.909   3.113
  261SOL    HW2 1027   0.129   0.903   3.054
  262SOL     OW 1028   1.532   0.994   2.061
  262SOL    HW1 1029   1.461   0.937   2.093
  262SOL    HW2 1030   1.573   1.029   2.140
  263SOL     OW 1031   1.471   1.417   2.815
  263SOL    HW1 1032   1.399   1.434   2.876
  263SOL    HW2 1033   1.456   1.327   2.786
  264SOL     OW 1034   1.658   1.741   2.440
  264SOL    HW1 1035   1.638   1.711   2.351
  264SOL    HW2 1036   1.633   1.667   2.496
  265SOL     OW 1037   0.603   0.730   2.132
  265SOL    HW1 1038   0.604   0.812   2.084
  265SOL    HW2 1039   0.538   0.743   2.201
  266SOL     OW 1040   1.279   0.356   2.794
  266SOL    HW1 1041   1.189   0.324   2.801
  266SOL    HW2 1042   1.329   0.298   2.852
  267SOL     OW 1043   1.580   1.671   2.171
  267SOL    HW1 1044   1.671   1.701   2.164
  267SOL    HW2 1045   1.553   1.654   2.081
  268SOL     OW 1046   3.038   2.775   0.207
  268SOL    HW1 1047   2.987   2.780   0.288
  268SOL    HW2 1048   2.978   2.736   0.143
  269SOL     OW 1049   3.160   3.100   0.332
  269SOL    HW1 1050   3.213   3.033   0.289
  269SOL    HW2 1051   3.110   3.140   0.261
  270SOL     OW 1052   1.005   0.414   3.093
  270SOL    HW1 1053   0.930   0.440   3.147
  270SOL    HW2 1054   0.966   0.371   3.016
  271SOL     OW 1055   1.052   0.700   2.288
  271SOL    HW1 1056   1.068   0.692   2.382
  271SOL    HW2 1057   0.969   0.654   2.274
  272SOL     OW 1058   0.106   0.845   2.643
  272SOL    HW1 1059   0.188   0.831   2.691
  272SOL    HW2 1060   0.046   0.881   2.708
  273SOL     OW 1061   0.858   0.348   2.072
  273SOL    HW1 1062   0.915   0.404   2.018
  273SOL    HW2 1063   0.878   0.259   2.044
  274SOL     OW 1064   1.378   1.142   2.403
  274SOL    HW1 1065   1.456   1.130   2.350
  274SOL    HW2 1066   1.325   1.204   2.354
  275SOL     OW 1067   0.600   0.192   2.765
  275SOL    HW1 1068   0.570   0.226   2.849
  275SOL    HW2 1069   0.563   0.252   2.700
  276SOL     OW 1070   1.004   1.443   2.333
  276SOL    HW1 1071   0.968   1.517   2.284
  276SOL    HW2 1072   0.987   1.465   2.424
  277SOL     OW 1073   0.357   1.816   2.751
  277SOL    HW1 1074   0.401   1.731   2.749
  277SOL    HW2 1075   0.428   1.879   2.756
  278SOL     OW 1076   1.799   1.057   2.731
  278SOL    HW1 1077   1.746   1.038   2.654
  278SOL    HW2 1078   1.736   1.062   2.803
  279SOL     OW 1079   3.424   3.732   0.237
  279SOL    HW1 1080   3.440   3.662   0.301
  279SOL    HW2 1081   3.357   3.696   0.179
  280SOL     OW 1082   0.309   0.948   2.107
  280SOL    HW1 1083   0.388   0.974   2.060
  280SOL    HW2 1084   0.321   0.854   2.123
  281SOL     OW 1085   1.480   0.745   2.588
  281SOL    HW1 1086   1.469   0.704   2.674
  281SOL    HW2 1087   1.556   0.801   2.598
  282SOL     OW 1088   1.122   1.778   2.092
  282SOL    HW1 1089   1.049   1.737   2.138
  282SOL    HW2 1090   1.146   1.716   2.023
  283SOL     OW 1091   2.380   2.457   0.249
  283SOL    HW1 1092   2.304   2.498   0.207
  283SOL    HW2 1093   2.358   2.457   0.342
  284SOL     OW 1094   1.628   1.380   1.950
  284SOL    HW1 1095   1.587   1.465   1.935
  284SOL    HW2 1096   1.560   1.316   1.931
  285SOL     OW 1097   0.470   1.735   2.183
  285SOL    HW1 1098   0.513   1.788   2.249
  285SOL    HW2 1099   0.541   1.702   2.128
  286SOL     OW 1100   1.393   0.155   2.261
  286SOL    HW1 1101   1.376   0.083   2.200
  286SOL    HW2 1102   1.479   0.136   2.298
  287SOL     OW 1103   0.258   1.785   3.101
  287SOL    HW1 1104   0.308   1.706   3.121
  287SOL    HW2 1105   0.232   1.773   3.010
  288SOL     OW 1106   0.937   1.700   2.764
  288SOL    HW1 1107   1.018   1.654   2.785
  288SOL    HW2 1108   0.897   1.648   2.694
  289SOL     OW 1109   0.398   0.705   2.326
  289SOL    HW1 1110   0.430   0.616   2.342
  289SOL    HW2 1111   0.308   0.704   2.360
  290SOL     OW 1112   0.637   0.126   1.975
  290SOL    HW1 1113   0.687   0.053   2.011
  290SOL    HW2 1114   0.590   0.089   1.901
  291SOL     OW 1115   0.873   1.518   3.056
  291SOL    HW1 1116   0.860   1.486   2.967
  291SOL    HW2 1117   0.950   1.470   3.088
  292SOL     OW 1118   3.536   2.786   0.186
  292SOL    HW1 1119   3.586   2.766   0.265
  292SOL    HW2 1120   3.559   2.876   0.165
  293SOL     OW 1121   0.816   1.395   2.801
  293SOL    HW1 1122   0.900   1.383   2.758
  293SOL    HW2 1123   0.752   1.398   2.730
  294SOL     OW 1124   0.929   0.511   2.766
  294SOL    HW1 1125   0.904   0.503   2.674
  294SOL    HW2 1126   0.959   0.423   2.790
  295SOL     OW 1127   0.564   0.059   2.363
  295SOL    HW1 1128   0.490   0.040   2.421
  295SOL    HW2 1129   0.536   0.135   2.312
  296SOL     OW 1130   1.428   1.198   1.903
  296SOL    HW1 1131   1.458   1.123   1.953
  296SOL    HW2 1132   1.342   1.220   1.940
  297SOL     OW 1133   0.315   0.071   2.013
  297SOL    HW1 1134   0.405   0.099   2.023
  297SOL    HW2 1135   0.305  -0.002   2.074
  298SOL     OW 1136   0.932   0.262   2.326
  298SOL    HW1 1137   0.899   0.298   2.243
  298SOL    HW2 1138   1.026   0.280   2.325
  299SOL     OW 1139   3.282   2.892   0.209
  299SOL    HW1 1140   3.210   2.830   0.215
  299SOL    HW2 1141   3.361   2.838   0.214
  300SOL     OW 1142   1.225   1.564   2.650
  300SOL    HW1 1143   1.240   1.634   2.586
  300SOL    HW2 1144   1.271   1.594   2.729
  301SOL     OW 1145   0.471   1.151   2.597
  301SOL    HW1 1146   0.402   1.131   2.660
  301SOL    HW2 1147   0.430   1.136   2.512
  302SOL     OW 1148   1.268   1.794   2.472
  302SOL    HW1 1149   1.314   1.856   2.415
  302SOL    HW2 1150   1.201   1.846   2.515
  303SOL     OW 1151   1.037   0.557   1.874
  303SOL    HW1 1152   0.982   0.634   1.857
  303SOL    HW2 1153   1.088   0.581   1.951
  304SOL     OW 1154   2.296   2.771   0.141
  304SOL    HW1 1155   2.385   2.760   0.109
  304SOL    HW2 1156   2.303   2.759   0.236
  305SOL     OW 1157   0.559   0.233   3.036
  305SOL    HW1 1158   0.599   0.148   3.055
  305SOL    HW2 1159   0.467   0.222   3.060
  306SOL     OW 1160   0.867   0.467   2.505
  306SOL    HW1 1161   0.815   0.520   2.445
  306SOL    HW2 1162   0.889   0.389   2.455
  307SOL     OW 1163   1.001   0.053   2.623
  307SOL    HW1 1164   0.933   0.047   2.556
  307SOL    HW2 1165   0.993  -0.027   2.673
  308SOL     OW 1166   1.438   1.161   2.719
  308SOL    HW1 1167   1.368   1.095   2.718
  308SOL    HW2 1168   1.460   1.173   2.626
  309SOL     OW 1169   1.466   0.607   2.838
  309SOL    HW1 1170   1.412   0.528   2.842
  309SOL    HW2 1171   1.525   0.600   2.913
  310SOL     OW 1172   1.845   0.816   2.244
  310SOL    HW1 1173   1.902   0.765   2.302
  310SOL    HW2 1174   1.817   0.753   2.178
  311SOL     OW 1175   0.488   1.418   2.019
  311SOL    HW1 1176   0.413   1.389   2.070
  311SOL    HW2 1177   0.471   1.386   1.931
  312SOL     OW 1178   1.671   1.264   2.506
  312SOL    HW1 1179   1.766   1.268   2.521
  312SOL    HW2 1180   1.640   1.352   2.528
  313SOL     OW 1181   1.394   0.571   1.934
  313SOL    HW1 1182   1.332   0.555   2.005
  313SOL    HW2 1183   1.478   0.541   1.968
  314SOL     OW 1184   0.519   0.261   2.183
  314SOL    HW1 1185   0.576   0.216   2.120
  314SOL    HW2 1186   0.508   0.349   2.146
  315SOL     OW 1187   3.259   3.550   0.093
  315SOL    HW1 1188   3.180   3.520   0.137
  315SOL    HW2 1189   3.330   3.499   0.132
  316SOL     OW 1190   1.127   1.207   2.963
  316SOL    HW1 1191   1.059   1.240   3.023
  316SOL    HW2 1192   1.099   1.238   2.877
  317SOL     OW 1193   1.626   1.095   2.939
  317SOL    HW1 1194   1.619   1.155   3.013
  317SOL    HW2 1195   1.548   1.113   2.885
  318SOL     OW 1196   3.103   2.344   0.118
  318SOL    HW1 1197   3.137   2.308   0.036
  318SOL    HW2 1198   3.181   2.374   0.165
  319SOL     OW 1199   0.707   1.060   2.234
  319SOL    HW1 1200   0.695   1.045   2.327
  319SOL    HW2 1201   0.783   1.007   2.210
  320SOL     OW 1202   2.603   2.997   0.013
  320SOL    HW1 1203   2.680   3.011   0.069
  320SOL    HW2 1204   2.579   2.905   0.028
  321SOL     OW 1205   3.468   2.579   0.027
  321SOL    HW1 1206   3.495   2.661   0.068
  321SOL    HW2 1207   3.380   2.597  -0.006
  322SOL     OW 1208   2.254   3.787   0.106
  322SOL    HW1 1209   2.231   3.854   0.041
  322SOL    HW2 1210   2.345   3.765   0.086
  323SOL     OW 1211   0.350   1.110   2.355
  323SOL    HW1 1212   0.352   1.181   2.291
  323SOL    HW2 1213   0.351   1.030   2.301
  324SOL     OW 1214   0.553   0.538   2.725
  324SOL    HW1 1215   0.568   0.594   2.648
  324SOL    HW2 1216   0.619   0.565   2.788
  325SOL     OW 1217   1.248   1.349   2.251
  325SOL    HW1 1218   1.304   1.420   2.282
  325SOL    HW2 1219   1.161   1.370   2.285
  326SOL     OW 1220   1.277   1.455   3.002
  326SOL    HW1 1221   1.336   1.463   3.077
  326SOL    HW2 1222   1.226   1.376   3.019
  327SOL     OW 1223   1.581   0.625   2.343
  327SOL    HW1 1224   1.533   0.677   2.407
  327SOL    HW2 1225   1.624   0.690   2.287
  328SOL     OW 1226   2.541   3.724   0.069
  328SOL    HW1 1227   2.527   3.679  -0.014
  328SOL    HW2 1228   2.636   3.734   0.075
  329SOL     OW 1229   0.585   0.873   2.900
  329SOL    HW1 1230   0.621   0.962   2.896
  329SOL    HW2 1231   0.533   0.871   2.980
  330SOL     OW 1232   1.356   0.864   2.891
  330SOL    HW1 1233   1.271   0.851   2.849
  330SOL    HW2 1234   1.398   0.778   2.888
  331SOL     OW 1235   1.203   0.534   2.127
  331SOL    HW1 1236   1.208   0.454   2.180
  331SOL    HW2 1237   1.161   0.598   2.184
  332SOL     OW 1238   2.496   2.379   0.003
  332SOL    HW1 1239   2.455   2.412   0.083
  332SOL    HW2 1240   2.487   2.283   0.010
  333SOL     OW 1241   2.255   3.517   0.028
  333SOL    HW1 1242   2.274   3.455   0.099
  333SOL    HW2 1243   2.226   3.596   0.074
  334SOL     OW 1244   0.726   0.632   2.923
  334SOL    HW1 1245   0.799   0.617   2.862
  334SOL    HW2 1246   0.695   0.720   2.902
  335SOL     OW 1247   0.346   0.062   2.549
  335SOL    HW1 1248   0.328   0.140   2.496
  335SOL    HW2 1249   0.288  -0.005   2.513
  336SOL     OW 1250   1.624   0.383   2.222
  336SOL    HW1 1251   1.653   0.316   2.284
  336SOL    HW2 1252   1.596   0.456   2.277
  337SOL     OW 1253   1.029   0.759   2.820
  337SOL    HW1 1254   1.025   0.777   2.913
  337SOL    HW2 1255   1.002   0.668   2.811
  338SOL     OW 1256   1.527   0.279   1.989
  338SOL    HW1 1257   1.462   0.215   2.018
  338SOL    HW2 1258   1.565   0.314   2.069
  339SOL     OW 1259   1.291   0.826   1.892
  339SOL    HW1 1260   1.334   0.740   1.896
  339SOL    HW2 1261   1.322   0.865   1.811
  340SOL     OW 1262   1.067   1.336   2.716
  340SOL    HW1 1263   1.069   1.264   2.653
  340SOL    HW2 1264   1.128   1.400   2.680
  341SOL     OW 1265   0.318   0.812   2.814
  341SOL    HW1 1266   0.412   0.832   2.818
  341SOL    HW2 1267   0.311   0.723   2.847
  342SOL     OW 1268   0.332   0.527   2.879
  342SOL    HW1 1269   0.293   0.441   2.862
  342SOL    HW2 1270   0.406   0.531   2.818
  343SOL     OW 1271   3.333   2.429   0.224
  343SOL    HW1 1272   3.352   2.471   0.308
  343SOL    HW2 1273   3.358   2.494   0.158
  344SOL     OW 1274   4.379   1.323   2.068
  344SOL    HW1 1275   4.295   1.323   2.023
  344SOL    HW2 1276   4.394   1.231   2.092
  345SOL     OW 1277   0.098   1.765   2.808
  345SOL    HW1 1278   0.058   1.751   2.722
  345SOL    HW2 1279   0.188   1.790   2.789
  346SOL     OW 1280   0.498   1.573   2.770
  346SOL    HW1 1281   0.567   1.636   2.791
  346SOL    HW2 1282   0.540   1.511   2.710
  347SOL     OW 1283   3.181   2.989  -0.024
  347SOL    HW1 1284   3.236   2.969   0.051
  347SOL    HW2 1285   3.095   2.955  -0.000
  348SOL     OW 1286   0.040   0.547   2.965
  348SOL    HW1 1287   0.133   0.533   2.945
  348SOL    HW2 1288   0.037   0.552   3.060
  349SOL     OW 1289   0.817   0.576   2.223
  349SOL    HW1 1290   0.809   0.496   2.170
  349SOL    HW2 1291   0.745   0.631   2.193
  350SOL     OW 1292   1.643   0.603   3.047
  350SOL    HW1 1293   1.635   0.539   3.118
  350SOL    HW2 1294   1.729   0.586   3.009
  351SOL     OW 1295   0.686   0.464   3.130
  351SOL    HW1 1296   0.644   0.384   3.098
  351SOL    HW2 1297   0.690   0.521   3.054
  352SOL     OW 1298   3.141   3.871   0.200
  352SOL    HW1 1299   3.105   3.839   0.117
  352SOL    HW2 1300   3.124   3.965   0.199
  353SOL     OW 1301   0.501   0.493   2.053
  353SOL    HW1 1302   0.553   0.568   2.081
  353SOL    HW2 1303   0.422   0.531   2.013
  354SOL     OW 1304   2.376   3.338   0.203
  354SOL    HW1 1305   2.308   3.300   0.259
  354SOL    HW2 1306   2.386   3.275   0.131
  355SOL     OW 1307   1.322   1.058   3.082
  355SOL    HW1 1308   1.348   0.993   3.018
  355SOL    HW2 1309   1.252   1.107   3.040
  356SOL     OW 1310   1.313   0.857   2.168
  356SOL    HW1 1311   1.238   0.827   2.219
  356SOL    HW2 1312   1.286   0.843   2.077
  357SOL     OW 1313   1.778   1.749   3.010
  357SOL    HW1 1314   1.841   1.768   2.941
  357SOL    HW2 1315   1.753   1.657   2.996
  358SOL     OW 1316   1.233   1.716   2.924
  358SOL    HW1 1317   1.322   1.748   2.909
  358SOL    HW2 1318   1.245   1.632   2.968
  359SOL     OW 1319   0.075   1.242   2.879
  359SOL    HW1 1320   0.070   1.266   2.971
  359SOL    HW2 1321  -0.012   1.262   2.844
  360SOL     OW 1322   1.741   0.164   2.365
  360SOL    HW1 1323   1.806   0.165   2.295
  360SOL    HW2 1324   1.761   0.086   2.417
  361SOL     OW 1325   1.391   1.568   2.347
  361SOL    HW1 1326   1.451   1.601   2.280
  361SOL    HW2 1327   1.342   1.645   2.376
  362SOL     OW 1328   1.277   0.926   2.533
  362SOL    HW1 1329   1.351   0.866   2.540
  362SOL    HW2 1330   1.311   0.999   2.480
  363SOL     OW 1331   3.016   3.474   0.191
  363SOL    HW1 1332   2.988   3.475   0.282
  363SOL    HW2 1333   2.941   3.506   0.142
  364SOL     OW 1334   0.670   1.620   2.018
  364SOL    HW1 1335   0.681   1.633   1.923
  364SOL    HW2 1336   0.615   1.542   2.025
  365SOL     OW 1337   3.825   3.895   0.175
  365SOL    HW1 1338   3.888   3.912   0.105
  365SOL    HW2 1339   3.823   3.976   0.226
  366SOL     OW 1340   1.824   0.168   2.859
  366SOL    HW1 1341   1.848   0.085   2.817
  366SOL    HW2 1342   1.740   0.192   2.820
  367SOL     OW 1343   0.285   0.360   2.597
  367SOL    HW1 1344   0.198   0.377   2.562
  367SOL    HW2 1345   0.270   0.334   2.688
  368SOL     OW 1346   1.208   1.605   1.894
  368SOL    HW1 1347   1.198   1.514   1.921
  368SOL    HW2 1348   1.142   1.617   1.825
  369SOL     OW 1349   3.030   3.206   0.120
  369SOL    HW1 1350   3.058   3.204   0.028
  369SOL    HW2 1351   3.021   3.299   0.140
  370SOL     OW 1352   0.915   0.911   2.152
  370SOL    HW1 1353   0.977   0.942   2.086
  370SOL    HW2 1354   0.963   0.842   2.198
  371SOL     OW 1355   1.491   1.625   1.905
  371SOL    HW1 1356   1.397   1.618   1.891
  371SOL    HW2 1357   1.528   1.632   1.817
  372SOL     OW 1358   2.592   3.505   0.248
  372SOL    HW1 1359   2.575   3.572   0.181
  372SOL    HW2 1360   2.531   3.435   0.229
  373SOL     OW 1361   3.803   3.470   0.035
  373SOL    HW1 1362   3.886   3.481   0.083
  373SOL    HW2 1363   3.752   3.547   0.059
  374SOL     OW 1364   1.053   1.107   2.569
  374SOL    HW1 1365   0.982   1.057   2.608
  374SOL    HW2 1366   1.116   1.042   2.539
  375SOL     OW 1367   1.023   0.245   2.823
  375SOL    HW1 1368   1.013   0.196   2.741
  375SOL    HW2 1369   1.019   0.178   2.892
  376SOL     OW 1370   0.605   1.489   2.344
  376SOL    HW1 1371   0.648   1.439   2.274
  376SOL    HW2 1372   0.530   1.530   2.301
  377SOL     OW 1373   3.908   2.600   0.123
  377SOL    HW1 1374   3.985   2.650   0.151
  377SOL    HW2 1375   3.943   2.519   0.088
  378SOL     OW 1376   0.255   1.343   2.151
  378SOL    HW1 1377   0.161   1.342   2.134
  378SOL    HW2 1378   0.264   1.380   2.238
  379SOL     OW 1379   2.873   2.403   0.234
  379SOL    HW1 1380   2.955   2.385   0.187
  379SOL    HW2 1381   2.899   2.455   0.309
  380SOL     OW 1382   0.068   0.318   1.843
  380SOL    HW1 1383  -0.019   0.319   1.882
  380SOL    HW2 1384   0.076   0.404   1.801
  381SOL     OW 1385   3.614   3.043   0.136
  381SOL    HW1 1386   3.564   3.114   0.095
  381SOL    HW2 1387   3.705   3.060   0.112
  382SOL     OW 1388   0.073   0.146   2.169
  382SOL    HW1 1389   0.109   0.227   2.133
  382SOL    HW2 1390   0.140   0.116   2.231
  383SOL     OW 1391   1.179   1.339   1.979
  383SOL    HW1 1392   1.088   1.309   1.981
  383SOL    HW2 1393   1.206   1.339   2.071
  384SOL     OW 1394   2.827   3.020   0.165
  384SOL    HW1 1395   2.873   3.100   0.139
  384SOL    HW2 1396   2.890   2.972   0.218
  385SOL     OW 1397   1.495   1.775   2.848
  385SOL    HW1 1398   1.509   1.840   2.778
  385SOL    HW2 1399   1.582   1.736   2.861
  386SOL     OW 1400   1.671   0.883   3.123
  386SOL    HW1 1401   1.659   0.797   3.082
  386SOL    HW2 1402   1.658   0.946   3.052
  387SOL     OW 1403   1.201   0.332   2.324
  387SOL    HW1 1404   1.266   0.266   2.302
  387SOL    HW2 1405   1.237   0.377   2.401
  388SOL     OW 1406   0.594   0.738   2.531
  388SOL    HW1 1407   0.630   0.825   2.517
  388SOL    HW2 1408   0.523   0.730   2.468
  389SOL     OW 1409   3.984   3.106   0.271
  389SOL    HW1 1410   3.962   3.188   0.316
  389SOL    HW2 1411   3.951   3.118   0.182
  390SOL     OW 1412   0.864   1.366   1.898
  390SOL    HW1 1413   0.824   1.393   1.981
  390SOL    HW2 1414   0.880   1.448   1.851
  391SOL     OW 1415   0.662   1.790   2.807
  391SOL    HW1 1416   0.643   1.881   2.784
  391SOL    HW2 1417   0.757   1.783   2.802
  392SOL     OW 1418   0.868   0.967   2.716
  392SOL    HW1 1419   0.917   0.895   2.755
  392SOL    HW2 1420   0.835   1.017   2.791
  393SOL     OW 1421   1.078   0.987   1.950
  393SOL    HW1 1422   1.057   1.039   1.873
  393SOL    HW2 1423   1.153   0.934   1.924
  394SOL     OW 1424   1.853   1.553   2.704
  394SOL    HW1 1425   1.774   1.540   2.652
  394SOL    HW2 1426   1.846   1.488   2.774
  395SOL     OW 1427   0.114   1.206   2.484
  395SOL    HW1 1428   0.097   1.174   2.572
  395SOL    HW2 1429   0.196   1.162   2.459
  396SOL     OW 1430   1.828   0.182   3.127
  396SOL    HW1 1431   1.792   0.098   3.151
  396SOL    HW2 1432   1.830   0.181   3.031
  397SOL     OW 1433   0.462   0.455   2.399
  397SOL    HW1 1434   0.485   0.375   2.352
  397SOL    HW2 1435   0.409   0.425   2.473
  398SOL     OW 1436   1.699   1.493   2.957
  398SOL    HW1 1437   1.618   1.467   2.912
  398SOL    HW2 1438   1.717   1.422   3.018
  399SOL     OW 1439   2.542   2.737   0.048
  399SOL    HW1 1440   2.591   2.670   0.096
  399SOL    HW2 1441   2.556   2.715  -0.045
  400SOL     OW 1442   0.830   1.578   2.539
  400SOL    HW1 1443   0.816   1.635   2.464
  400SOL    HW2 1444   0.753   1.520   2.539
  401SOL     OW 1445   1.435   0.223   2.974
  401SOL    HW1 1446   1.474   0.149   3.021
  401SOL    HW2 1447   1.388   0.272   3.040
  402SOL     OW 1448   1.018   4.425   3.001
  402SOL    HW1 1449   0.947   4.363   2.987
  402SOL    HW2 1450   1.097   4.371   3.003
  403SOL     OW 1451   0.772   1.332   2.177
  403SOL    HW1 1452   0.742   1.242   2.184
  403SOL    HW2 1453   0.854   1.334   2.227
  404SOL     OW 1454   2.816   3.750   0.043
  404SOL    HW1 1455   2.816   3.829   0.096
  404SOL    HW2 1456   2.904   3.746   0.006
  405SOL     OW 1457   1.353   0.052   1.991
  405SOL    HW1 1458   1.426  -0.007   1.976
  405SOL    HW2 1459   1.286  -0.003   2.032
  406SOL     OW 1460   1.301   0.466   2.545
  406SOL    HW1 1461   1.246   0.543   2.550
  406SOL    HW2 1462   1.294   0.425   2.631
  407SOL     OW 1463   1.593   0.231   2.741
  407SOL    HW1 1464   1.530   0.239   2.813
  407SOL    HW2 1465   1.589   0.316   2.697
  408SOL     OW 1466   0.048   1.063   2.138
  408SOL    HW1 1467   0.138   1.034   2.130
  408SOL    HW2 1468   0.021   1.036   2.226
  409SOL     OW 1469   0.886   1.653   2.202
  409SOL    HW1 1470   0.812   1.636   2.144
  409SOL    HW2 1471   0.858   1.727   2.256
  410SOL     OW 1472   0.221   2.452   0.038
  410SOL    HW1 1473   0.200   2.456   0.131
  410SOL    HW2 1474   0.137   2.444  -0.006
  411SOL     OW 1475   0.207   2.135   0.995
  411SOL    HW1 1476   0.242   2.106   1.079
  411SOL    HW2 1477   0.120   2.095   0.990
  412SOL     OW 1478   4.422   2.253   0.643
  412SOL    HW1 1479   4.341   2.288   0.679
  412SOL    HW2 1480   4.398   2.167   0.609
  413SOL     OW 1481   0.567   3.151   1.177
  413SOL    HW1 1482   0.480   3.156   1.138
  413SOL    HW2 1483   0.583   3.239   1.211
  414SOL     OW 1484   1.561   3.374   0.707
  414SOL    HW1 1485   1.518   3.351   0.789
  414SOL    HW2 1486   1.490   3.376   0.642
  415SOL     OW 1487   1.132   2.560   0.701
  415SOL    HW1 1488   1.180   2.641   0.687
  415SOL    HW2 1489   1.084   2.574   0.782
  416SOL     OW 1490   1.770   2.462   0.226
  416SOL    HW1 1491   1.727   2.459   0.141
  416SOL    HW2 1492   1.733   2.389   0.275
  417SOL     OW 1493   0.754   3.004   1.042
  417SOL    HW1 1494   0.685   3.039   1.099
  417SOL    HW2 1495   0.790   3.081   0.998
  418SOL     OW 1496   0.867   2.635   1.822
  418SOL    HW1 1497   0.859   2.705   1.886
  418SOL    HW2 1498   0.891   2.679   1.740
  419SOL     OW 1499   0.687   2.865   0.648
  419SOL    HW1 1500   0.751   2.853   0.718
  419SOL    HW2 1501   0.617   2.916   0.689
  420SOL     OW 1502   0.710   3.012   1.813
  420SOL    HW1 1503   0.759   3.090   1.841
  420SOL    HW2 1504   0.629   3.046   1.776
  421SOL     OW 1505   0.337   3.284   1.066
  421SOL    HW1 1506   0.263   3.251   1.015
  421SOL    HW2 1507   0.386   3.338   1.005
  422SOL     OW 1508   1.460   3.361   1.356
  422SOL    HW1 1509   1.510   3.442   1.368
  422SOL    HW2 1510   1.395   3.363   1.426
  423SOL     OW 1511   0.449   2.262   1.495
  423SOL    HW1 1512   0.525   2.204   1.495
  423SOL    HW2 1513   0.374   2.202   1.500
  424SOL     OW 1514   1.611   2.310   0.741
  424SOL    HW1 1515   1.536   2.331   0.686
  424SOL    HW2 1516   1.623   2.387   0.796
  425SOL     OW 1517   0.221   3.572   0.463
  425SOL    HW1 1518   0.240   3.641   0.527
  425SOL    HW2 1519   0.297   3.570   0.406
  426SOL     OW 1520   1.137   3.204   1.693
  426SOL    HW1 1521   1.177   3.199   1.779
  426SOL    HW2 1522   1.085   3.124   1.686
  427SOL     OW 1523   0.238   3.309   0.554
  427SOL    HW1 1524   0.206   3.399   0.539
  427SOL    HW2 1525   0.162   3.263   0.590
  428SOL     OW 1526   0.254   2.954   0.890
  428SOL    HW1 1527   0.261   2.867   0.930
  428SOL    HW2 1528   0.189   2.999   0.943
  429SOL     OW 1529   0.615   3.652   1.429
  429SOL    HW1 1530   0.533   3.634   1.474
  429SOL    HW2 1531   0.636   3.743   1.453
  430SOL     OW 1532   0.582   2.853   0.164
  430SOL    HW1 1533   0.624   2.890   0.086
  430SOL    HW2 1534   0.635   2.885   0.237
  431SOL     OW 1535   1.596   1.986   1.467
  431SOL    HW1 1536   1.604   2.067   1.417
  431SOL    HW2 1537   1.581   2.015   1.557
  432SOL     OW 1538   0.152   2.500   0.587
  432SOL    HW1 1539   0.109   2.418   0.610
  432SOL    HW2 1540   0.133   2.559   0.659
  433SOL     OW 1541   1.839   3.621   0.338
  433SOL    HW1 1542   1.910   3.595   0.396
  433SOL    HW2 1543   1.862   3.710   0.310
  434SOL     OW 1544   0.011   3.441   0.128
  434SOL    HW1 1545   0.005   3.361   0.180
  434SOL    HW2 1546   0.016   3.511   0.194
  435SOL     OW 1547   1.691   2.782   0.641
  435SOL    HW1 1548   1.771   2.737   0.613
  435SOL    HW2 1549   1.665   2.834   0.565
  436SOL     OW 1550   1.643   2.966   0.431
  436SOL    HW1 1551   1.727   2.972   0.385
  436SOL    HW2 1552   1.651   3.030   0.502
  437SOL     OW 1553   0.147   2.609   1.575
  437SOL    HW1 1554   0.242   2.618   1.570
  437SOL    HW2 1555   0.116   2.696   1.599
  438SOL     OW 1556   0.615   3.248   0.737
  438SOL    HW1 1557   0.568   3.165   0.747
  438SOL    HW2 1558   0.597   3.275   0.647
  439SOL     OW 1559   1.289   3.101   1.422
  439SOL    HW1 1560   1.320   3.032   1.363
  439SOL    HW2 1561   1.346   3.094   1.499
  440SOL     OW 1562   0.822   1.863   0.510
  440SOL    HW1 1563   0.859   1.948   0.490
  440SOL    HW2 1564   0.728   1.879   0.518
  441SOL     OW 1565   0.172   2.794   1.277
  441SOL    HW1 1566   0.265   2.773   1.270
  441SOL    HW2 1567   0.134   2.763   1.195
  442SOL     OW 1568   1.517   2.853   0.199
  442SOL    HW1 1569   1.451   2.798   0.241
  442SOL    HW2 1570   1.570   2.886   0.272
  443SOL     OW 1571   1.188   3.669   1.622
  443SOL    HW1 1572   1.193   3.728   1.547
  443SOL    HW2 1573   1.203   3.582   1.586
  444SOL     OW 1574   0.336   2.114   1.806
  444SOL    HW1 1575   0.373   2.202   1.808
  444SOL    HW2 1576   0.241   2.127   1.804
  445SOL     OW 1577   1.468   3.282   0.952
  445SOL    HW1 1578   1.400   3.297   1.017
  445SOL    HW2 1579   1.456   3.191   0.924
  446SOL     OW 1580   1.657   3.604   0.583
  446SOL    HW1 1581   1.644   3.577   0.493
  446SOL    HW2 1582   1.630   3.528   0.635
  447SOL     OW 1583   0.601   2.587   0.281
  447SOL    HW1 1584   0.606   2.670   0.232
  447SOL    HW2 1585   0.531   2.601   0.345
  448SOL     OW 1586   1.279   2.216   0.933
  448SOL    HW1 1587   1.190   2.183   0.941
  448SOL    HW2 1588   1.330   2.163   0.993
  449SOL     OW 1589   1.581   3.532   0.316
  449SOL    HW1 1590   1.671   3.563   0.309
  449SOL    HW2 1591   1.557   3.508   0.226
  450SOL     OW 1592   0.792   2.479   1.451
  450SOL    HW1 1593   0.765   2.455   1.540
  450SOL    HW2 1594   0.752   2.412   1.395
  451SOL     OW 1595   1.394   2.336   1.678
  451SOL    HW1 1596   1.396   2.380   1.763
  451SOL    HW2 1597   1.454   2.262   1.688
  452SOL     OW 1598   0.954   2.749   1.583
  452SOL    HW1 1599   1.008   2.679   1.547
  452SOL    HW2 1600   0.906   2.783   1.508
  453SOL     OW 1601   0.992   2.275   1.238
  453SOL    HW1 1602   0.906   2.295   1.274
  453SOL    HW2 1603   0.974   2.229   1.156
  454SOL     OW 1604   1.053   2.560   0.427
  454SOL    HW1 1605   1.069   2.554   0.521
  454SOL    HW2 1606   0.969   2.515   0.413
  455SOL     OW 1607   0.107   2.698   0.778
  455SOL    HW1 1608   0.188   2.689   0.829
  455SOL    HW2 1609   0.048   2.746   0.837
  456SOL     OW 1610   0.138   3.740   1.584
  456SOL    HW1 1611   0.139   3.722   1.678
  456SOL    HW2 1612   0.065   3.688   1.550
  457SOL     OW 1613   0.883   2.218   0.200
  457SOL    HW1 1614   0.929   2.271   0.135
  457SOL    HW2 1615   0.888   2.129   0.168
  458SOL     OW 1616   1.709   2.436   1.828
  458SOL    HW1 1617   1.670   2.509   1.780
  458SOL    HW2 1618   1.735   2.374   1.760
  459SOL     OW 1619   1.379   3.002   0.541
  459SOL    HW1 1620   1.457   2.989   0.488
  459SOL    HW2 1621   1.326   3.065   0.491
  460SOL     OW 1622   0.553   2.042   0.894
  460SOL    HW1 1623   0.556   2.075   0.984
  460SOL    HW2 1624   0.541   2.120   0.840
  461SOL     OW 1625   1.006   3.307   0.477
  461SOL    HW1 1626   0.957   3.381   0.441
  461SOL    HW2 1627   0.994   3.314   0.572
  462SOL     OW 1628   0.356   3.676   0.885
  462SOL    HW1 1629   0.400   3.591   0.886
  462SOL    HW2 1630   0.427   3.740   0.895
  463SOL     OW 1631   1.802   2.918   0.868
  463SOL    HW1 1632   1.748   2.900   0.791
  463SOL    HW2 1633   1.739   2.924   0.940
  464SOL     OW 1634   1.228   3.400   1.512
  464SOL    HW1 1635   1.214   3.329   1.574
  464SOL    HW2 1636   1.161   3.387   1.445
  465SOL     OW 1637   0.320   2.832   0.249
  465SOL    HW1 1638   0.407   2.861   0.223
  465SOL    HW2 1639   0.306   2.750   0.202
  466SOL     OW 1640   1.480   2.605   0.726
  466SOL    HW1 1641   1.471   2.563   0.811
  466SOL    HW2 1642   1.557   2.661   0.734
  467SOL     OW 1643   0.469   3.124   1.735
  467SOL    HW1 1644   0.442   3.132   1.643
  467SOL    HW2 1645   0.387   3.127   1.784
  468SOL     OW 1646   1.118   3.657   0.227
  468SOL    HW1 1647   1.081   3.629   0.311
  468SOL    HW2 1648   1.125   3.577   0.175
  469SOL     OW 1649   0.203   2.142   1.493
  469SOL    HW1 1650   0.126   2.198   1.479
  469SOL    HW2 1651   0.170   2.069   1.547
  470SOL     OW 1652   1.636   3.230   0.090
  470SOL    HW1 1653   1.593   3.315   0.078
  470SOL    HW2 1654   1.571   3.166   0.062
  471SOL     OW 1655   0.461   3.604   0.323
  471SOL    HW1 1656   0.503   3.658   0.390
  471SOL    HW2 1657   0.533   3.571   0.269
  472SOL     OW 1658   1.401   1.970   0.432
  472SOL    HW1 1659   1.391   1.947   0.340
  472SOL    HW2 1660   1.495   1.975   0.446
  473SOL     OW 1661   0.251   3.651   1.232
  473SOL    HW1 1662   0.300   3.579   1.272
  473SOL    HW2 1663   0.239   3.623   1.141
  474SOL     OW 1664   0.938   3.561   0.898
  474SOL    HW1 1665   1.014   3.507   0.920
  474SOL    HW2 1666   0.893   3.512   0.829
  475SOL     OW 1667   0.399   2.561   0.473
  475SOL    HW1 1668   0.427   2.471   0.491
  475SOL    HW2 1669   0.306   2.562   0.499
  476SOL     OW 1670   1.534   2.087   1.725
  476SOL    HW1 1671   1.544   2.108   1.818
  476SOL    HW2 1672   1.465   2.021   1.723
  477SOL     OW 1673   0.615   1.975   0.113
  477SOL    HW1 1674   0.708   1.961   0.127
  477SOL    HW2 1675   0.598   1.941   0.025
  478SOL     OW 1676   0.765   2.140   1.754
  478SOL    HW1 1677   0.842   2.083   1.755
  478SOL    HW2 1678   0.719   2.119   1.835
  479SOL     OW 1679   0.876   3.384   1.193
  479SOL    HW1 1680   0.860   3.347   1.107
  479SOL    HW2 1681   0.946   3.329   1.230
  480SOL     OW 1682   1.340   2.451   1.432
  480SOL    HW1 1683   1.371   2.419   1.517
  480SOL    HW2 1684   1.376   2.539   1.425
  481SOL     OW 1685   0.816   3.256   0.941
  481SOL    HW1 1686   0.900   3.244   0.896
  481SOL    HW2 1687   0.751   3.258   0.871
  482SOL     OW 1688   0.928   2.372   0.902
  482SOL    HW1 1689   0.904   2.364   0.810
  482SOL    HW2 1690   0.959   2.284   0.927
  483SOL     OW 1691   0.557   1.918   0.503
  483SOL    HW1 1692   0.480   1.915   0.560
  483SOL    HW2 1693   0.549   2.002   0.457
  484SOL     OW 1694   1.434   3.059   0.039
  484SOL    HW1 1695   1.460   2.981   0.088
  484SOL    HW2 1696   1.344   3.076   0.068
  485SOL     OW 1697   0.319   1.927   0.182
  485SOL    HW1 1698   0.399   1.954   0.138
  485SOL    HW2 1699   0.341   1.845   0.226
  486SOL     OW 1700   0.940   2.109   0.458
  486SOL    HW1 1701   0.912   2.154   0.378
  486SOL    HW2 1702   1.034   2.125   0.464
  487SOL     OW 1703   1.080   2.543   1.459
  487SOL    HW1 1704   1.012   2.476   1.464
  487SOL    HW2 1705   1.162   2.494   1.453
  488SOL     OW 1706   1.224   3.430   0.792
  488SOL    HW1 1707   1.238   3.498   0.726
  488SOL    HW2 1708   1.291   3.447   0.858
  489SOL     OW 1709   0.470   3.011   0.736
  489SOL    HW1 1710   0.399   2.994   0.797
  489SOL    HW2 1711   0.431   2.998   0.650
  490SOL     OW 1712   1.266   3.655   0.607
  490SOL    HW1 1713   1.317   3.718   0.555
  490SOL    HW2 1714   1.200   3.709   0.651
  491SOL     OW 1715   1.013   2.406   0.026
  491SOL    HW1 1716   0.976   2.494   0.032
  491SOL    HW2 1717   1.092   2.409   0.081
  492SOL     OW 1718   0.089   2.400   1.386
  492SOL    HW1 1719   0.176   2.407   1.348
  492SOL    HW2 1720   0.088   2.466   1.456
  493SOL     OW 1721   0.560   2.090   1.167
  493SOL    HW1 1722   0.600   2.012   1.204
  493SOL    HW2 1723   0.468   2.086   1.194
  494SOL     OW 1724   0.868   2.321   0.640
  494SOL    HW1 1725   0.822   2.376   0.576
  494SOL    HW2 1726   0.888   2.241   0.591
  495SOL     OW 1727   1.017   1.915   0.750
  495SOL    HW1 1728   0.957   1.908   0.676
  495SOL    HW2 1729   0.994   1.840   0.805
  496SOL     OW 1730   1.438   3.025   0.856
  496SOL    HW1 1731   1.368   2.960   0.855
  496SOL    HW2 1732   1.464   3.035   0.765
  497SOL     OW 1733   1.466   2.468   0.975
  497SOL    HW1 1734   1.414   2.388   0.978
  497SOL    HW2 1735   1.525   2.461   1.050
  498SOL     OW 1736   1.853   2.676   0.381
  498SOL    HW1 1737   1.904   2.620   0.439
  498SOL    HW2 1738   1.821   2.617   0.313
  499SOL     OW 1739   0.485   3.272   0.150
  499SOL    HW1 1740   0.425   3.243   0.219
  499SOL    HW2 1741   0.438   3.255   0.069
  500SOL     OW 1742   1.669   3.125   0.649
  500SOL    HW1 1743   1.764   3.129   0.658
  500SOL    HW2 1744   1.639   3.215   0.666
  501SOL     OW 1745   1.397   2.454   0.095
  501SOL    HW1 1746   1.338   2.418   0.161
  501SOL    HW2 1747   1.438   2.378   0.055
  502SOL     OW 1748   0.523   2.127   0.327
  502SOL    HW1 1749   0.561   2.073   0.258
  502SOL    HW2 1750   0.509   2.212   0.287
  503SOL     OW 1751   1.748   3.105   1.570
  503SOL    HW1 1752   1.834   3.064   1.561
  503SOL    HW2 1753   1.766   3.191   1.607
  504SOL     OW 1754   1.058   3.216   1.334
  504SOL    HW1 1755   0.983   3.185   1.384
  504SOL    HW2 1756   1.134   3.175   1.375
  505SOL     OW 1757   1.608   3.488   1.655
  505SOL    HW1 1758   1.604   3.520   1.565
  505SOL    HW2 1759   1.691   3.440   1.659
  506SOL     OW 1760   1.131   3.068   1.105
  506SOL    HW1 1761   1.070   3.103   1.170
  506SOL    HW2 1762   1.097   3.098   1.021
  507SOL     OW 1763   1.629   2.961   1.076
  507SOL    HW1 1764   1.624   3.022   1.149
  507SOL    HW2 1765   1.550   2.977   1.025
  508SOL     OW 1766   0.918   1.959   1.396
  508SOL    HW1 1767   0.940   1.940   1.305
  508SOL    HW2 1768   0.997   1.998   1.433
  509SOL     OW 1769   0.985   2.977   1.722
  509SOL    HW1 1770   0.893   2.994   1.744
  509SOL    HW2 1771   0.982   2.899   1.667
  510SOL     OW 1772   0.720   2.932   0.381
  510SOL    HW1 1773   0.701   2.910   0.473
  510SOL    HW2 1774   0.794   2.876   0.357
  511SOL     OW 1775   0.421   2.682   1.255
  511SOL    HW1 1776   0.491   2.688   1.319
  511SOL    HW2 1777   0.389   2.592   1.263
  512SOL     OW 1778   1.265   2.239   1.276
  512SOL    HW1 1779   1.298   2.316   1.322
  512SOL    HW2 1780   1.174   2.261   1.253
  513SOL     OW 1781   0.065   3.449   1.352
  513SOL    HW1 1782   0.057   3.520   1.288
  513SOL    HW2 1783   0.159   3.431   1.355
  514SOL     OW 1784   0.351   2.976   0.493
  514SOL    HW1 1785   0.345   3.048   0.431
  514SOL    HW2 1786   0.351   2.897   0.439
  515SOL     OW 1787   0.551   2.399   0.863
  515SOL    HW1 1788   0.566   2.455   0.786
  515SOL    HW2 1789   0.619   2.427   0.925
  516SOL     OW 1790   1.248   3.207   0.397
  516SOL    HW1 1791   1.305   3.279   0.424
  516SOL    HW2 1792   1.161   3.232   0.429
  517SOL     OW 1793   1.282   3.320   1.146
  517SOL    HW1 1794   1.336   3.322   1.225
  517SOL    HW2 1795   1.226   3.243   1.157
  518SOL     OW 1796   1.585   2.487   0.482
  518SOL    HW1 1797   1.534   2.536   0.547
  518SOL    HW2 1798   1.612   2.553   0.418
  519SOL     OW 1799   0.344   3.395   1.314
  519SOL    HW1 1800   0.329   3.346   1.233
  519SOL    HW2 1801   0.439   3.404   1.318
  520SOL     OW 1802   0.420   2.604   1.599
  520SOL    HW1 1803   0.483   2.647   1.541
  520SOL    HW2 1804   0.461   2.519   1.619
  521SOL     OW 1805   1.602   2.640   1.683
  521SOL    HW1 1806   1.516   2.682   1.677
  521SOL    HW2 1807   1.654   2.683   1.615
  522SOL     OW 1808   0.995   1.987   1.755
  522SOL    HW1 1809   1.053   2.059   1.728
  522SOL    HW2 1810   1.043   1.908   1.730
  523SOL     OW 1811   0.501   1.903   1.748
  523SOL    HW1 1812   0.458   1.848   1.682
  523SOL    HW2 1813   0.441   1.976   1.760
  524SOL     OW 1814   0.589   2.736   1.035
  524SOL    HW1 1815   0.618   2.827   1.031
  524SOL    HW2 1816   0.530   2.732   1.111
  525SOL     OW 1817   1.357   2.720   1.029
  525SOL    HW1 1818   1.273   2.711   0.983
  525SOL    HW2 1819   1.398   2.634   1.022
  526SOL     OW 1820   1.196   2.383   0.268
  526SOL    HW1 1821   1.206   2.307   0.325
  526SOL    HW2 1822   1.155   2.449   0.324
  527SOL     OW 1823   0.299   2.059   1.245
  527SOL    HW1 1824   0.265   2.090   1.329
  527SOL    HW2 1825   0.283   1.965   1.246
  528SOL     OW 1826   0.106   3.186   1.274
  528SOL    HW1 1827   0.121   3.130   1.350
  528SOL    HW2 1828   0.065   3.265   1.309
  529SOL     OW 1829   0.726   2.494   1.059
  529SOL    HW1 1830   0.800   2.478   1.000
  529SOL    HW2 1831   0.697   2.582   1.038
  530SOL     OW 1832   1.735   2.821   1.853
  530SOL    HW1 1833   1.689   2.758   1.798
  530SOL    HW2 1834   1.676   2.836   1.927
  531SOL     OW 1835   0.318   1.911   0.632
  531SOL    HW1 1836   0.284   2.001   0.638
  531SOL    HW2 1837   0.317   1.880   0.723
  532SOL     OW 1838   1.620   2.238   0.375
  532SOL    HW1 1839   1.645   2.175   0.443
  532SOL    HW2 1840   1.597   2.317   0.423
  533SOL     OW 1841   1.028   2.621   0.960
  533SOL    HW1 1842   1.024   2.638   1.054
  533SOL    HW2 1843   1.001   2.529   0.951
  534SOL     OW 1844   0.983   3.429   1.718
  534SOL    HW1 1845   0.968   3.473   1.634
  534SOL    HW2 1846   1.025   3.346   1.694
  535SOL     OW 1847   1.857   3.368   1.610
  535SOL    HW1 1848   1.877   3.388   1.519
  535SOL    HW2 1849   1.938   3.385   1.657
  536SOL     OW 1850   0.366   2.792   1.795
  536SOL    HW1 1851   0.443   2.814   1.847
  536SOL    HW2 1852   0.399   2.730   1.729
  537SOL     OW 1853   1.548   2.133   0.134
  537SOL    HW1 1854   1.484   2.067   0.158
  537SOL    HW2 1855   1.574   2.174   0.216
  538SOL     OW 1856   1.303   2.692   0.001
  538SOL    HW1 1857   1.329   2.604   0.030
  538SOL    HW2 1858   1.383   2.729  -0.037
  539SOL     OW 1859   1.066   3.199   0.854
  539SOL    HW1 1860   1.070   3.125   0.792
  539SOL    HW2 1861   1.128   3.262   0.819
  540SOL     OW 1862   0.316   2.674   0.954
  540SOL    HW1 1863   0.411   2.689   0.946
  540SOL    HW2 1864   0.309   2.583   0.983
  541SOL     OW 1865   0.331   2.379   1.015
  541SOL    HW1 1866   0.291   2.295   0.993
  541SOL    HW2 1867   0.406   2.387   0.957
  542SOL     OW 1868   1.134   2.238   1.682
  542SOL    HW1 1869   1.086   2.292   1.745
  542SOL    HW2 1870   1.222   2.276   1.679
  543SOL     OW 1871   1.161   2.064   1.470
  543SOL    HW1 1872   1.150   2.127   1.542
  543SOL    HW2 1873   1.201   2.115   1.399
  544SOL     OW 1874   4.391   3.191   0.240
  544SOL    HW1 1875   4.327   3.186   0.169
  544SOL    HW2 1876   4.402   3.100   0.269
  545SOL     OW 1877   0.097   3.618   0.942
  545SOL    HW1 1878   0.056   3.621   0.855
  545SOL    HW2 1879   0.186   3.648   0.927
  546SOL     OW 1880   0.498   3.437   0.907
  546SOL    HW1 1881   0.567   3.499   0.929
  546SOL    HW2 1882   0.540   3.373   0.848
  547SOL     OW 1883   0.982   2.654   1.226
  547SOL    HW1 1884   1.037   2.631   1.300
  547SOL    HW2 1885   0.897   2.615   1.247
  548SOL     OW 1886   0.043   2.420   1.095
  548SOL    HW1 1887   0.133   2.395   1.079
  548SOL    HW2 1888   0.030   2.407   1.190
  549SOL     OW 1889   0.183   2.376   1.701
  549SOL    HW1 1890   0.248   2.341   1.640
  549SOL    HW2 1891   0.152   2.457   1.660
  550SOL     OW 1892   1.378   2.800   1.658
  550SOL    HW1 1893   1.399   2.893   1.656
  550SOL    HW2 1894   1.375   2.774   1.566
  551SOL     OW 1895   0.818   2.434   0.367
  551SOL    HW1 1896   0.823   2.363   0.303
  551SOL    HW2 1897   0.745   2.488   0.336
  552SOL     OW 1898   1.641   2.464   1.185
  552SOL    HW1 1899   1.631   2.405   1.260
  552SOL    HW2 1900   1.728   2.444   1.151
  553SOL     OW 1901   0.252   3.429   1.730
  553SOL    HW1 1902   0.241   3.468   1.816
  553SOL    HW2 1903   0.246   3.334   1.746
  554SOL     OW 1904   0.701   2.312   1.260
  554SOL    HW1 1905   0.649   2.238   1.229
  554SOL    HW2 1906   0.698   2.375   1.187
  555SOL     OW 1907   0.929   3.541   1.467
  555SOL    HW1 1908   0.901   3.505   1.383
  555SOL    HW2 1909   0.921   3.636   1.457
  556SOL     OW 1910   0.467   2.362   0.197
  556SOL    HW1 1911   0.538   2.422   0.219
  556SOL    HW2 1912   0.396   2.419   0.167
  557SOL     OW 1913   0.169   3.001   1.459
  557SOL    HW1 1914   0.145   2.964   1.544
  557SOL    HW2 1915   0.175   2.925   1.401
  558SOL     OW 1916   1.326   2.909   1.222
  558SOL    HW1 1917   1.348   2.845   1.154
  558SOL    HW2 1918   1.256   2.962   1.183
  559SOL     OW 1919   1.305   2.714   0.306
  559SOL    HW1 1920   1.230   2.683   0.356
  559SOL    HW2 1921   1.284   2.695   0.215
  560SOL     OW 1922   1.796   3.602   1.157
  560SOL    HW1 1923   1.832   3.632   1.074
  560SOL    HW2 1924   1.759   3.516   1.137
  561SOL     OW 1925   1.241   3.596   1.114
  561SOL    HW1 1926   1.322   3.616   1.067
  561SOL    HW2 1927   1.247   3.502   1.132
  562SOL     OW 1928   0.066   3.090   1.027
  562SOL    HW1 1929   0.082   3.123   1.115
  562SOL    HW2 1930  -0.019   3.127   1.003
  563SOL     OW 1931   0.678   3.528   1.731
  563SOL    HW1 1932   0.623   3.607   1.727
  563SOL    HW2 1933   0.743   3.541   1.662
  564SOL     OW 1934   0.903   1.954   0.119
  564SOL    HW1 1935   0.955   1.949   0.039
  564SOL    HW2 1936   0.952   1.902   0.184
  565SOL     OW 1937   1.721   2.011   0.516
  565SOL    HW1 1938   1.788   1.990   0.451
  565SOL    HW2 1939   1.701   1.926   0.556
  566SOL     OW 1940   1.390   3.430   0.486
  566SOL    HW1 1941   1.453   3.461   0.421
  566SOL    HW2 1942   1.344   3.509   0.515
  567SOL     OW 1943   0.122   3.672   1.852
  567SOL    HW1 1944   0.090   3.602   1.909
  567SOL    HW2 1945   0.193   3.713   1.902
  568SOL     OW 1946   1.278   2.788   0.672
  568SOL    HW1 1947   1.351   2.727   0.678
  568SOL    HW2 1948   1.311   2.860   0.619
  569SOL     OW 1949   0.812   3.136   1.428
  569SOL    HW1 1950   0.785   3.175   1.511
  569SOL    HW2 1951   0.743   3.158   1.367
  570SOL     OW 1952   0.661   3.477   0.180
  570SOL    HW1 1953   0.681   3.498   0.089
  570SOL    HW2 1954   0.608   3.398   0.176
  571SOL     OW 1955   1.629   3.589   1.391
  571SOL    HW1 1956   1.678   3.597   1.310
  571SOL    HW2 1957   1.613   3.680   1.419
  572SOL     OW 1958   1.842   2.035   0.966
  572SOL    HW1 1959   1.870   1.947   0.940
  572SOL    HW2 1960   1.755   2.044   0.926
  573SOL     OW 1961   0.284   2.185   0.734
  573SOL    HW1 1962   0.204   2.216   0.692
  573SOL    HW2 1963   0.258   2.168   0.825
  574SOL     OW 1964   1.236   3.464   0.016
  574SOL    HW1 1965   1.221   3.385   0.068
  574SOL    HW2 1966   1.150   3.486  -0.019
  575SOL     OW 1967   0.823   2.868   1.373
  575SOL    HW1 1968   0.866   2.863   1.288
  575SOL    HW2 1969   0.822   2.961   1.394
  576SOL     OW 1970   0.922   2.779   0.296
  576SOL    HW1 1971   0.978   2.803   0.222
  576SOL    HW2 1972   0.967   2.705   0.337
  577SOL     OW 1973   1.506   3.467   0.058
  577SOL    HW1 1974   1.413   3.464   0.037
  577SOL    HW2 1975   1.544   3.524  -0.009
  578SOL     OW 1976   0.374   3.174   1.492
  578SOL    HW1 1977   0.356   3.249   1.436
  578SOL    HW2 1978   0.301   3.114   1.476
  579SOL     OW 1979   1.614   3.146   1.282
  579SOL    HW1 1980   1.666   3.130   1.361
  579SOL    HW2 1981   1.551   3.213   1.309
  580SOL     OW 1982   1.054   2.971   0.707
  580SOL    HW1 1983   0.982   2.920   0.745
  580SOL    HW2 1984   1.116   2.905   0.675
  581SOL     OW 1985   1.022   2.103   0.966
  581SOL    HW1 1986   1.017   2.055   0.883
  581SOL    HW2 1987   1.017   2.034   1.033
  582SOL     OW 1988   0.604   3.350   0.484
  582SOL    HW1 1989   0.644   3.301   0.412
  582SOL    HW2 1990   0.528   3.393   0.444
  583SOL     OW 1991   1.722   2.254   1.380
  583SOL    HW1 1992   1.794   2.317   1.379
  583SOL    HW2 1993   1.752   2.183   1.324
  584SOL     OW 1994   0.277   3.195   0.319
  584SOL    HW1 1995   0.186   3.193   0.289
  584SOL    HW2 1996   0.273   3.239   0.403
  585SOL     OW 1997   0.118   2.887   1.699
  585SOL    HW1 1998   0.057   2.857   1.766
  585SOL    HW2 1999   0.205   2.882   1.740
  586SOL     OW 2000   0.674   2.060   1.499
  586SOL    HW1 2001   0.758   2.038   1.458
  586SOL    HW2 2002   0.697   2.089   1.587
  587SOL     OW 2003   2.201   4.371   3.101
  587SOL    HW1 2004   2.194   4.322   3.019
  587SOL    HW2 2005   2.295   4.390   3.110
  588SOL     OW 2006   1.429   2.720   1.400
  588SOL    HW1 2007   1.381   2.781   1.344
  588SOL    HW2 2008   1.518   2.723   1.366
  589SOL     OW 2009   0.047   2.003   0.265
  589SOL    HW1 2010   0.103   2.078   0.246
  589SOL    HW2 2011   0.109   1.930   0.275
  590SOL     OW 2012   1.182   3.214   0.127
  590SOL    HW1 2013   1.110   3.153   0.111
  590SOL    HW2 2014   1.207   3.199   0.218
  591SOL     OW 2015   0.621   2.692   1.436
  591SOL    HW1 2016   0.677   2.768   1.420
  591SOL    HW2 2017   0.682   2.619   1.443
  592SOL     OW 2018   1.479   3.641   0.977
  592SOL    HW1 2019   1.502   3.700   0.905
  592SOL    HW2 2020   1.563   3.610   1.011
  593SOL     OW 2021   0.715   2.426   1.704
  593SOL    HW1 2022   0.758   2.488   1.763
  593SOL    HW2 2023   0.742   2.340   1.737
  594SOL     OW 2024   1.471   3.061   1.631
  594SOL    HW1 2025   1.458   3.075   1.725
  594SOL    HW2 2026   1.564   3.077   1.617
  595SOL     OW 2027   0.383   3.604   1.563
  595SOL    HW1 2028   0.302   3.652   1.545
  595SOL    HW2 2029   0.355   3.525   1.608
  596SOL     OW 2030   1.669   2.743   1.254
  596SOL    HW1 2031   1.662   2.657   1.212
  596SOL    HW2 2032   1.659   2.806   1.183
  597SOL     OW 2033   1.215   2.179   0.460
  597SOL    HW1 2034   1.280   2.109   0.451
  597SOL    HW2 2035   1.245   2.229   0.536
  598SOL     OW 2036   0.590   2.602   0.673
  598SOL    HW1 2037   0.629   2.687   0.656
  598SOL    HW2 2038   0.523   2.592   0.606
  599SOL     OW 2039   1.761   2.225   1.650
  599SOL    HW1 2040   1.744   2.240   1.557
  599SOL    HW2 2041   1.690   2.168   1.679
  600SOL     OW 2042   1.744   2.793   1.512
  600SOL    HW1 2043   1.744   2.888   1.525
  600SOL    HW2 2044   1.729   2.782   1.418
  601SOL     OW 2045   0.873   3.205   0.039
  601SOL    HW1 2046   0.810   3.208   0.111
  601SOL    HW2 2047   0.841   3.271  -0.023
  602SOL     OW 2048   0.662   3.653   0.943
  602SOL    HW1 2049   0.641   3.744   0.921
  602SOL    HW2 2050   0.758   3.648   0.936
  603SOL     OW 2051   0.868   2.830   0.855
  603SOL    HW1 2052   0.918   2.758   0.894
  603SOL    HW2 2053   0.833   2.878   0.930
  604SOL     OW 2054   1.084   2.844   0.082
  604SOL    HW1 2055   1.064   2.904   0.010
  604SOL    HW2 2056   1.162   2.797   0.054
  605SOL     OW 2057   1.851   3.415   0.845
  605SOL    HW1 2058   1.776   3.402   0.787
  605SOL    HW2 2059   1.846   3.343   0.908
  606SOL     OW 2060   0.232   3.168   1.853
  606SOL    HW1 2061   0.150   3.146   1.807
  606SOL    HW2 2062   0.208   3.163   1.946
  607SOL     OW 2063   0.111   3.059   0.625
  607SOL    HW1 2064   0.111   3.038   0.719
  607SOL    HW2 2065   0.194   3.025   0.593
  608SOL     OW 2066   0.683   3.266   1.628
  608SOL    HW1 2067   0.603   3.222   1.657
  608SOL    HW2 2068   0.678   3.354   1.666
  609SOL     OW 2069   1.814   2.047   1.237
  609SOL    HW1 2070   1.821   1.952   1.252
  609SOL    HW2 2071   1.823   2.057   1.142
  610SOL     OW 2072   0.460   2.310   0.542
  610SOL    HW1 2073   0.481   2.239   0.481
  610SOL    HW2 2074   0.402   2.270   0.607
  611SOL     OW 2075   1.695   3.357   1.103
  611SOL    HW1 2076   1.618   3.333   1.051
  611SOL    HW2 2077   1.707   3.285   1.164
  612SOL     OW 2078   0.340   2.421   1.289
  612SOL    HW1 2079   0.394   2.363   1.343
  612SOL    HW2 2080   0.353   2.390   1.200
  613SOL     OW 2081   0.826   3.438   0.680
  613SOL    HW1 2082   0.813   3.489   0.599
  613SOL    HW2 2083   0.750   3.381   0.684
  614SOL     OW 2084   1.432   2.088   1.118
  614SOL    HW1 2085   1.454   2.006   1.162
  614SOL    HW2 2086   1.380   2.137   1.182
  615SOL     OW 2087   1.009   1.880   1.141
  615SOL    HW1 2088   0.954   1.813   1.101
  615SOL    HW2 2089   1.097   1.842   1.144
  616SOL     OW 2090   0.773   3.192   0.312
  616SOL    HW1 2091   0.740   3.104   0.326
  616SOL    HW2 2092   0.854   3.196   0.363
  617SOL     OW 2093   0.620   3.417   1.285
  617SOL    HW1 2094   0.622   3.499   1.335
  617SOL    HW2 2095   0.707   3.410   1.246
  618SOL     OW 2096   1.351   1.919   0.161
  618SOL    HW1 2097   1.394   1.854   0.106
  618SOL    HW2 2098   1.267   1.880   0.183
  619SOL     OW 2099   1.297   2.323   0.681
  619SOL    HW1 2100   1.244   2.403   0.687
  619SOL    HW2 2101   1.292   2.284   0.768
  620SOL     OW 2102   1.587   2.063   0.879
  620SOL    HW1 2103   1.527   2.084   0.950
  620SOL    HW2 2104   1.586   2.141   0.823
  621SOL     OW 2105   0.059   2.930   0.293
  621SOL    HW1 2106   0.151   2.903   0.286
  621SOL    HW2 2107   0.026   2.880   0.368
  622SOL     OW 2108   0.863   3.513   0.369
  622SOL    HW1 2109   0.785   3.501   0.314
  622SOL    HW2 2110   0.847   3.594   0.416
  623SOL     OW 2111   0.277   2.448   1.951
  623SOL    HW1 2112   0.217   2.472   2.021
  623SOL    HW2 2113   0.223   2.447   1.872
  624SOL     OW 2114   0.213   2.132   2.856
  624SOL    HW1 2115   0.246   2.109   2.943
  624SOL    HW2 2116   0.143   2.068   2.840
  625SOL     OW 2117   4.416   2.240   2.510
  625SOL    HW1 2118   4.331   2.284   2.515
  625SOL    HW2 2119   4.400   2.162   2.456
  626SOL     OW 2120   0.562   3.148   3.034
  626SOL    HW1 2121   0.474   3.160   2.997
  626SOL    HW2 2122   0.586   3.236   3.065
  627SOL     OW 2123   1.560   3.374   2.570
  627SOL    HW1 2124   1.519   3.356   2.654
  627SOL    HW2 2125   1.488   3.378   2.508
  628SOL     OW 2126   1.130   2.561   2.559
  628SOL    HW1 2127   1.179   2.642   2.548
  628SOL    HW2 2128   1.085   2.572   2.643
  629SOL     OW 2129   1.772   2.466   2.089
  629SOL    HW1 2130   1.748   2.458   1.997
  629SOL    HW2 2131   1.732   2.389   2.131
  630SOL     OW 2132   0.750   3.002   2.901
  630SOL    HW1 2133   0.684   3.037   2.961
  630SOL    HW2 2134   0.789   3.079   2.860
  631SOL     OW 2135   0.685   2.865   2.509
  631SOL    HW1 2136   0.752   2.853   2.576
  631SOL    HW2 2137   0.617   2.917   2.552
  632SOL     OW 2138   0.335   3.280   2.929
  632SOL    HW1 2139   0.253   3.263   2.882
  632SOL    HW2 2140   0.384   3.338   2.870
  633SOL     OW 2141   3.658   1.157   0.091
  633SOL    HW1 2142   3.634   1.250   0.092
  633SOL    HW2 2143   3.685   1.138   0.180
  634SOL     OW 2144   2.637   0.049   0.217
  634SOL    HW1 2145   2.717  -0.003   0.229
  634SOL    HW2 2146   2.569  -0.002   0.261
  635SOL     OW 2147   1.611   2.310   2.602
  635SOL    HW1 2148   1.535   2.332   2.549
  635SOL    HW2 2149   1.621   2.384   2.662
  636SOL     OW 2150   0.223   3.571   2.318
  636SOL    HW1 2151   0.236   3.637   2.386
  636SOL    HW2 2152   0.304   3.572   2.268
  637SOL     OW 2153   0.235   3.302   2.395
  637SOL    HW1 2154   0.212   3.395   2.395
  637SOL    HW2 2155   0.165   3.260   2.446
  638SOL     OW 2156   0.242   2.943   2.743
  638SOL    HW1 2157   0.266   2.868   2.798
  638SOL    HW2 2158   0.189   2.998   2.800
  639SOL     OW 2159   2.801   1.466   0.155
  639SOL    HW1 2160   2.738   1.430   0.217
  639SOL    HW2 2161   2.859   1.520   0.208
  640SOL     OW 2162   0.581   2.849   1.999
  640SOL    HW1 2163   0.630   2.894   1.930
  640SOL    HW2 2164   0.622   2.878   2.080
  641SOL     OW 2165   3.827   4.154   0.286
  641SOL    HW1 2166   3.805   4.198   0.204
  641SOL    HW2 2167   3.816   4.221   0.354
  642SOL     OW 2168   0.163   2.508   2.467
  642SOL    HW1 2169   0.112   2.428   2.470
  642SOL    HW2 2170   0.131   2.561   2.540
  643SOL     OW 2171   1.842   3.619   2.195
  643SOL    HW1 2172   1.905   3.591   2.261
  643SOL    HW2 2173   1.865   3.711   2.178
  644SOL     OW 2174   0.032   3.465   1.999
  644SOL    HW1 2175   0.025   3.369   1.999
  644SOL    HW2 2176   0.021   3.489   2.091
  645SOL     OW 2177   1.688   2.780   2.502
  645SOL    HW1 2178   1.772   2.739   2.479
  645SOL    HW2 2179   1.666   2.832   2.424
  646SOL     OW 2180   1.646   2.969   2.291
  646SOL    HW1 2181   1.733   2.974   2.249
  646SOL    HW2 2182   1.651   3.030   2.364
  647SOL     OW 2183   0.616   3.248   2.598
  647SOL    HW1 2184   0.569   3.166   2.609
  647SOL    HW2 2185   0.598   3.274   2.508
  648SOL     OW 2186   3.488   0.901   0.197
  648SOL    HW1 2187   3.509   0.842   0.125
  648SOL    HW2 2188   3.562   0.893   0.257
  649SOL     OW 2189   0.821   1.860   2.372
  649SOL    HW1 2190   0.860   1.946   2.352
  649SOL    HW2 2191   0.727   1.878   2.381
  650SOL     OW 2192   0.202   2.840   3.119
  650SOL    HW1 2193   0.284   2.795   3.096
  650SOL    HW2 2194   0.136   2.796   3.065
  651SOL     OW 2195   1.532   2.856   2.061
  651SOL    HW1 2196   1.462   2.800   2.093
  651SOL    HW2 2197   1.573   2.891   2.140
  652SOL     OW 2198   1.470   3.280   2.816
  652SOL    HW1 2199   1.399   3.297   2.878
  652SOL    HW2 2200   1.456   3.189   2.788
  653SOL     OW 2201   1.659   3.601   2.439
  653SOL    HW1 2202   1.637   3.571   2.351
  653SOL    HW2 2203   1.633   3.529   2.497
  654SOL     OW 2204   0.604   2.588   2.131
  654SOL    HW1 2205   0.608   2.671   2.084
  654SOL    HW2 2206   0.541   2.603   2.201
  655SOL     OW 2207   1.267   2.218   2.780
  655SOL    HW1 2208   1.179   2.185   2.797
  655SOL    HW2 2209   1.322   2.170   2.842
  656SOL     OW 2210   1.580   3.533   2.171
  656SOL    HW1 2211   1.670   3.563   2.164
  656SOL    HW2 2212   1.553   3.516   2.081
  657SOL     OW 2213   2.980   0.285   0.206
  657SOL    HW1 2214   3.000   0.252   0.293
  657SOL    HW2 2215   2.948   0.209   0.158
  658SOL     OW 2216   3.189   0.575   0.318
  658SOL    HW1 2217   3.219   0.491   0.285
  658SOL    HW2 2218   3.107   0.591   0.272
  659SOL     OW 2219   0.993   2.277   3.088
  659SOL    HW1 2220   0.912   2.303   3.133
  659SOL    HW2 2221   0.963   2.225   3.014
  660SOL     OW 2222   1.052   2.561   2.288
  660SOL    HW1 2223   1.068   2.555   2.382
  660SOL    HW2 2224   0.970   2.513   2.275
  661SOL     OW 2225   0.102   2.702   2.656
  661SOL    HW1 2226   0.182   2.681   2.703
  661SOL    HW2 2227   0.098   2.798   2.658
  662SOL     OW 2228   0.893   2.210   2.055
  662SOL    HW1 2229   0.934   2.273   1.995
  662SOL    HW2 2230   0.913   2.124   2.017
  663SOL     OW 2231   1.377   3.004   2.403
  663SOL    HW1 2232   1.457   2.993   2.350
  663SOL    HW2 2233   1.324   3.067   2.354
  664SOL     OW 2234   0.549   2.040   2.753
  664SOL    HW1 2235   0.554   2.073   2.843
  664SOL    HW2 2236   0.541   2.119   2.700
  665SOL     OW 2237   1.003   3.304   2.332
  665SOL    HW1 2238   0.968   3.379   2.284
  665SOL    HW2 2239   0.988   3.325   2.424
  666SOL     OW 2240   0.359   3.673   2.738
  666SOL    HW1 2241   0.401   3.588   2.749
  666SOL    HW2 2242   0.428   3.736   2.757
  667SOL     OW 2243   1.800   2.914   2.727
  667SOL    HW1 2244   1.744   2.898   2.651
  667SOL    HW2 2245   1.738   2.923   2.800
  668SOL     OW 2246   3.402   1.183   0.298
  668SOL    HW1 2247   3.445   1.101   0.276
  668SOL    HW2 2248   3.326   1.187   0.239
  669SOL     OW 2249   0.309   2.808   2.104
  669SOL    HW1 2250   0.390   2.835   2.061
  669SOL    HW2 2251   0.322   2.716   2.125
  670SOL     OW 2252   1.479   2.604   2.587
  670SOL    HW1 2253   1.470   2.563   2.673
  670SOL    HW2 2254   1.556   2.661   2.596
  671SOL     OW 2255   1.121   3.641   2.091
  671SOL    HW1 2256   1.049   3.599   2.138
  671SOL    HW2 2257   1.145   3.578   2.023
  672SOL     OW 2258   2.376   4.309   0.249
  672SOL    HW1 2259   2.290   4.342   0.221
  672SOL    HW2 2260   2.378   4.325   0.343
  673SOL     OW 2261   1.627   3.242   1.946
  673SOL    HW1 2262   1.585   3.327   1.934
  673SOL    HW2 2263   1.558   3.179   1.929
  674SOL     OW 2264   0.471   3.598   2.184
  674SOL    HW1 2265   0.513   3.651   2.251
  674SOL    HW2 2266   0.543   3.565   2.130
  675SOL     OW 2267   1.401   1.969   2.296
  675SOL    HW1 2268   1.391   1.944   2.204
  675SOL    HW2 2269   1.495   1.976   2.309
  676SOL     OW 2270   0.266   3.653   3.090
  676SOL    HW1 2271   0.308   3.574   3.124
  676SOL    HW2 2272   0.208   3.622   3.020
  677SOL     OW 2273   0.935   3.564   2.758
  677SOL    HW1 2274   1.012   3.515   2.789
  677SOL    HW2 2275   0.897   3.508   2.690
  678SOL     OW 2276   0.399   2.565   2.327
  678SOL    HW1 2277   0.431   2.477   2.344
  678SOL    HW2 2278   0.308   2.564   2.359
  679SOL     OW 2279   0.631   1.982   1.971
  679SOL    HW1 2280   0.703   1.919   1.984
  679SOL    HW2 2281   0.587   1.952   1.892
  680SOL     OW 2282   0.878   3.390   3.048
  680SOL    HW1 2283   0.859   3.348   2.964
  680SOL    HW2 2284   0.941   3.332   3.090
  681SOL     OW 2285   3.574   0.256   0.158
  681SOL    HW1 2286   3.564   0.231   0.250
  681SOL    HW2 2287   3.578   0.351   0.159
  682SOL     OW 2288   0.817   3.256   2.802
  682SOL    HW1 2289   0.901   3.244   2.759
  682SOL    HW2 2290   0.753   3.257   2.731
  683SOL     OW 2291   0.927   2.372   2.765
  683SOL    HW1 2292   0.904   2.362   2.673
  683SOL    HW2 2293   0.959   2.285   2.791
  684SOL     OW 2294   0.556   1.917   2.369
  684SOL    HW1 2295   0.477   1.913   2.423
  684SOL    HW2 2296   0.549   2.000   2.321
  685SOL     OW 2297   1.427   3.060   1.903
  685SOL    HW1 2298   1.457   2.985   1.953
  685SOL    HW2 2299   1.342   3.082   1.941
  686SOL     OW 2300   0.318   1.904   2.031
  686SOL    HW1 2301   0.384   1.967   2.002
  686SOL    HW2 2302   0.366   1.839   2.082
  687SOL     OW 2303   0.938   2.109   2.320
  687SOL    HW1 2304   0.913   2.151   2.238
  687SOL    HW2 2305   1.033   2.123   2.327
  688SOL     OW 2306   3.280   0.346   0.191
  688SOL    HW1 2307   3.222   0.277   0.223
  688SOL    HW2 2308   3.357   0.341   0.247
  689SOL     OW 2309   1.227   3.425   2.648
  689SOL    HW1 2310   1.242   3.496   2.585
  689SOL    HW2 2311   1.274   3.452   2.727
  690SOL     OW 2312   0.467   3.012   2.599
  690SOL    HW1 2313   0.396   2.992   2.660
  690SOL    HW2 2314   0.429   2.997   2.513
  691SOL     OW 2315   1.268   3.655   2.470
  691SOL    HW1 2316   1.315   3.716   2.413
  691SOL    HW2 2317   1.202   3.708   2.514
  692SOL     OW 2318   1.023   2.402   1.886
  692SOL    HW1 2319   0.981   2.486   1.866
  692SOL    HW2 2320   1.088   2.423   1.953
  693SOL     OW 2321   2.259   0.232   0.106
  693SOL    HW1 2322   2.353   0.228   0.089
  693SOL    HW2 2323   2.249   0.304   0.168
  694SOL     OW 2324   0.557   2.090   3.024
  694SOL    HW1 2325   0.602   2.018   3.069
  694SOL    HW2 2326   0.467   2.086   3.056
  695SOL     OW 2327   0.868   2.320   2.502
  695SOL    HW1 2328   0.820   2.375   2.440
  695SOL    HW2 2329   0.889   2.241   2.453
  696SOL     OW 2330   1.017   1.913   2.611
  696SOL    HW1 2331   0.957   1.905   2.537
  696SOL    HW2 2332   0.994   1.840   2.668
  697SOL     OW 2333   1.437   3.023   2.719
  697SOL    HW1 2334   1.367   2.958   2.721
  697SOL    HW2 2335   1.457   3.034   2.626
  698SOL     OW 2336   1.467   2.468   2.836
  698SOL    HW1 2337   1.412   2.389   2.843
  698SOL    HW2 2338   1.525   2.463   2.912
  699SOL     OW 2339   1.847   2.677   2.244
  699SOL    HW1 2340   1.902   2.626   2.303
  699SOL    HW2 2341   1.818   2.614   2.178
  700SOL     OW 2342   0.489   3.281   2.019
  700SOL    HW1 2343   0.413   3.252   2.070
  700SOL    HW2 2344   0.475   3.243   1.932
  701SOL     OW 2345   1.671   3.127   2.505
  701SOL    HW1 2346   1.765   3.131   2.521
  701SOL    HW2 2347   1.639   3.215   2.529
  702SOL     OW 2348   1.394   2.434   1.934
  702SOL    HW1 2349   1.332   2.415   2.004
  702SOL    HW2 2350   1.478   2.402   1.966
  703SOL     OW 2351   0.524   2.119   2.187
  703SOL    HW1 2352   0.570   2.070   2.119
  703SOL    HW2 2353   0.513   2.207   2.149
  704SOL     OW 2354   3.255   1.013   0.085
  704SOL    HW1 2355   3.177   0.994   0.136
  704SOL    HW2 2356   3.327   0.975   0.136
  705SOL     OW 2357   1.124   3.061   2.965
  705SOL    HW1 2358   1.070   3.103   3.031
  705SOL    HW2 2359   1.095   3.099   2.882
  706SOL     OW 2360   1.627   2.959   2.930
  706SOL    HW1 2361   1.620   3.018   3.005
  706SOL    HW2 2362   1.549   2.978   2.878
  707SOL     OW 2363   3.102   4.145   0.138
  707SOL    HW1 2364   3.139   4.128   0.052
  707SOL    HW2 2365   3.168   4.199   0.183
  708SOL     OW 2366   0.707   2.922   2.234
  708SOL    HW1 2367   0.695   2.907   2.328
  708SOL    HW2 2368   0.783   2.869   2.211
  709SOL     OW 2369   2.615   0.480   0.005
  709SOL    HW1 2370   2.689   0.488   0.066
  709SOL    HW2 2371   2.580   0.392   0.021
  710SOL     OW 2372   3.457   0.048   0.026
  710SOL    HW1 2373   3.494   0.128   0.064
  710SOL    HW2 2374   3.366   0.070   0.005
  711SOL     OW 2375   2.266   1.228   0.065
  711SOL    HW1 2376   2.215   1.292   0.114
  711SOL    HW2 2377   2.356   1.243   0.092
  712SOL     OW 2378   0.351   2.972   2.355
  712SOL    HW1 2379   0.353   3.044   2.292
  712SOL    HW2 2380   0.353   2.893   2.302
  713SOL     OW 2381   0.550   2.399   2.725
  713SOL    HW1 2382   0.566   2.454   2.648
  713SOL    HW2 2383   0.617   2.425   2.788
  714SOL     OW 2384   1.248   3.211   2.251
  714SOL    HW1 2385   1.303   3.282   2.282
  714SOL    HW2 2386   1.161   3.231   2.285
  715SOL     OW 2387   1.275   3.322   3.001
  715SOL    HW1 2388   1.334   3.330   3.076
  715SOL    HW2 2389   1.216   3.250   3.025
  716SOL     OW 2390   1.580   2.485   2.340
  716SOL    HW1 2391   1.533   2.533   2.408
  716SOL    HW2 2392   1.623   2.553   2.288
  717SOL     OW 2393   2.549   1.194   0.069
  717SOL    HW1 2394   2.528   1.150  -0.013
  717SOL    HW2 2395   2.644   1.202   0.068
  718SOL     OW 2396   0.588   2.739   2.895
  718SOL    HW1 2397   0.624   2.828   2.896
  718SOL    HW2 2398   0.534   2.734   2.974
  719SOL     OW 2399   1.358   2.723   2.893
  719SOL    HW1 2400   1.271   2.713   2.852
  719SOL    HW2 2401   1.398   2.637   2.888
  720SOL     OW 2402   1.203   2.390   2.128
  720SOL    HW1 2403   1.212   2.313   2.182
  720SOL    HW2 2404   1.161   2.455   2.184
  721SOL     OW 2405   2.492   4.252   0.001
  721SOL    HW1 2406   2.458   4.287   0.084
  721SOL    HW2 2407   2.476   4.158   0.007
  722SOL     OW 2408   2.234   0.963   0.029
  722SOL    HW1 2409   2.273   0.927   0.108
  722SOL    HW2 2410   2.237   1.058   0.041
  723SOL     OW 2411   0.723   2.492   2.921
  723SOL    HW1 2412   0.800   2.475   2.866
  723SOL    HW2 2413   0.698   2.582   2.900
  724SOL     OW 2414   0.313   1.902   2.495
  724SOL    HW1 2415   0.285   1.993   2.488
  724SOL    HW2 2416   0.314   1.884   2.589
  725SOL     OW 2417   1.617   2.237   2.228
  725SOL    HW1 2418   1.644   2.173   2.294
  725SOL    HW2 2419   1.594   2.315   2.278
  726SOL     OW 2420   1.030   2.620   2.818
  726SOL    HW1 2421   1.023   2.641   2.911
  726SOL    HW2 2422   1.003   2.529   2.812
  727SOL     OW 2423   1.529   2.135   1.989
  727SOL    HW1 2424   1.464   2.070   2.016
  727SOL    HW2 2425   1.562   2.171   2.072
  728SOL     OW 2426   1.290   2.687   1.892
  728SOL    HW1 2427   1.333   2.602   1.896
  728SOL    HW2 2428   1.322   2.727   1.811
  729SOL     OW 2429   1.066   3.198   2.714
  729SOL    HW1 2430   1.070   3.125   2.652
  729SOL    HW2 2431   1.129   3.262   2.680
  730SOL     OW 2432   0.322   2.671   2.814
  730SOL    HW1 2433   0.416   2.690   2.812
  730SOL    HW2 2434   0.317   2.580   2.845
  731SOL     OW 2435   0.327   2.383   2.875
  731SOL    HW1 2436   0.290   2.297   2.855
  731SOL    HW2 2437   0.404   2.390   2.819
  732SOL     OW 2438   3.299   4.306   0.233
  732SOL    HW1 2439   3.357   4.293   0.308
  732SOL    HW2 2440   3.357   4.332   0.161
  733SOL     OW 2441   4.381   3.187   2.065
  733SOL    HW1 2442   4.298   3.184   2.018
  733SOL    HW2 2443   4.397   3.096   2.092
  734SOL     OW 2444   0.099   3.596   2.806
  734SOL    HW1 2445   0.041   3.664   2.773
  734SOL    HW2 2446   0.187   3.626   2.783
  735SOL     OW 2447   0.500   3.435   2.772
  735SOL    HW1 2448   0.569   3.498   2.794
  735SOL    HW2 2449   0.544   3.372   2.714
  736SOL     OW 2450   3.172   0.464  -0.027
  736SOL    HW1 2451   3.230   0.434   0.042
  736SOL    HW2 2452   3.085   0.432  -0.001
  737SOL     OW 2453   0.040   2.397   2.945
  737SOL    HW1 2454   0.134   2.398   2.929
  737SOL    HW2 2455   0.032   2.406   3.040
  738SOL     OW 2456   0.819   2.430   2.222
  738SOL    HW1 2457   0.821   2.356   2.161
  738SOL    HW2 2458   0.747   2.485   2.191
  739SOL     OW 2459   1.643   2.466   3.043
  739SOL    HW1 2460   1.631   2.402   3.113
  739SOL    HW2 2461   1.728   2.445   3.005
  740SOL     OW 2462   0.700   2.308   3.121
  740SOL    HW1 2463   0.647   2.236   3.087
  740SOL    HW2 2464   0.698   2.374   3.052
  741SOL     OW 2465   3.154   1.333   0.198
  741SOL    HW1 2466   3.101   1.308   0.122
  741SOL    HW2 2467   3.118   1.418   0.226
  742SOL     OW 2468   0.498   2.352   2.059
  742SOL    HW1 2469   0.551   2.427   2.084
  742SOL    HW2 2470   0.420   2.390   2.018
  743SOL     OW 2471   2.359   0.817   0.230
  743SOL    HW1 2472   2.318   0.766   0.301
  743SOL    HW2 2473   2.362   0.756   0.156
  744SOL     OW 2474   1.323   2.916   3.087
  744SOL    HW1 2475   1.350   2.851   3.021
  744SOL    HW2 2476   1.252   2.964   3.045
  745SOL     OW 2477   1.313   2.719   2.167
  745SOL    HW1 2478   1.239   2.689   2.220
  745SOL    HW2 2479   1.286   2.704   2.077
  746SOL     OW 2480   1.751   3.613   2.989
  746SOL    HW1 2481   1.827   3.633   2.934
  746SOL    HW2 2482   1.739   3.519   2.980
  747SOL     OW 2483   1.221   3.588   2.918
  747SOL    HW1 2484   1.310   3.614   2.896
  747SOL    HW2 2485   1.231   3.505   2.966
  748SOL     OW 2486   0.067   3.095   2.877
  748SOL    HW1 2487   0.061   3.113   2.971
  748SOL    HW2 2488  -0.007   3.142   2.839
  749SOL     OW 2489   1.720   2.010   2.371
  749SOL    HW1 2490   1.792   1.995   2.310
  749SOL    HW2 2491   1.704   1.924   2.411
  750SOL     OW 2492   1.390   3.430   2.345
  750SOL    HW1 2493   1.450   3.464   2.280
  750SOL    HW2 2494   1.342   3.506   2.376
  751SOL     OW 2495   1.277   2.787   2.532
  751SOL    HW1 2496   1.351   2.727   2.540
  751SOL    HW2 2497   1.312   2.860   2.480
  752SOL     OW 2498   2.984   0.953   0.151
  752SOL    HW1 2499   2.996   0.953   0.246
  752SOL    HW2 2500   2.892   0.974   0.139
  753SOL     OW 2501   0.670   3.483   2.018
  753SOL    HW1 2502   0.682   3.495   1.924
  753SOL    HW2 2503   0.616   3.405   2.025
  754SOL     OW 2504   3.877   1.393   0.150
  754SOL    HW1 2505   3.874   1.411   0.056
  754SOL    HW2 2506   3.825   1.462   0.190
  755SOL     OW 2507   1.840   2.033   2.832
  755SOL    HW1 2508   1.869   1.947   2.800
  755SOL    HW2 2509   1.755   2.046   2.791
  756SOL     OW 2510   0.285   2.190   2.598
  756SOL    HW1 2511   0.203   2.217   2.558
  756SOL    HW2 2512   0.263   2.173   2.689
  757SOL     OW 2513   1.208   3.467   1.893
  757SOL    HW1 2514   1.198   3.376   1.921
  757SOL    HW2 2515   1.142   3.479   1.825
  758SOL     OW 2516   3.016   0.679   0.115
  758SOL    HW1 2517   3.071   0.673   0.037
  758SOL    HW2 2518   3.004   0.773   0.129
  759SOL     OW 2519   0.914   2.771   2.151
  759SOL    HW1 2520   0.976   2.804   2.085
  759SOL    HW2 2521   0.963   2.704   2.198
  760SOL     OW 2522   1.490   3.488   1.905
  760SOL    HW1 2523   1.396   3.481   1.891
  760SOL    HW2 2524   1.527   3.494   1.817
  761SOL     OW 2525   2.581   0.981   0.250
  761SOL    HW1 2526   2.557   1.044   0.182
  761SOL    HW2 2527   2.510   0.918   0.251
  762SOL     OW 2528   3.806   0.939   0.027
  762SOL    HW1 2529   3.884   0.952   0.080
  762SOL    HW2 2530   3.747   1.011   0.052
  763SOL     OW 2531   1.053   2.969   2.567
  763SOL    HW1 2532   0.983   2.919   2.608
  763SOL    HW2 2533   1.117   2.902   2.540
  764SOL     OW 2534   1.017   2.103   2.825
  764SOL    HW1 2535   1.016   2.053   2.743
  764SOL    HW2 2536   1.015   2.035   2.893
  765SOL     OW 2537   0.604   3.350   2.343
  765SOL    HW1 2538   0.647   3.301   2.272
  765SOL    HW2 2539   0.530   3.393   2.300
  766SOL     OW 2540   3.915   0.059   0.122
  766SOL    HW1 2541   3.995   0.112   0.123
  766SOL    HW2 2542   3.941  -0.023   0.081
  767SOL     OW 2543   0.256   3.205   2.149
  767SOL    HW1 2544   0.161   3.202   2.132
  767SOL    HW2 2545   0.264   3.241   2.237
  768SOL     OW 2546   2.868   4.235   0.235
  768SOL    HW1 2547   2.951   4.211   0.194
  768SOL    HW2 2548   2.893   4.282   0.314
  769SOL     OW 2549   0.064   2.174   1.835
  769SOL    HW1 2550  -0.025   2.183   1.869
  769SOL    HW2 2551   0.082   2.258   1.793
  770SOL     OW 2552   3.632   0.533   0.157
  770SOL    HW1 2553   3.577   0.591   0.105
  770SOL    HW2 2554   3.716   0.531   0.111
  771SOL     OW 2555   0.071   1.975   2.159
  771SOL    HW1 2556   0.091   2.069   2.168
  771SOL    HW2 2557   0.152   1.931   2.184
  772SOL     OW 2558   1.179   3.201   1.979
  772SOL    HW1 2559   1.088   3.170   1.983
  772SOL    HW2 2560   1.207   3.202   2.071
  773SOL     OW 2561   2.825   0.498   0.170
  773SOL    HW1 2562   2.886   0.571   0.157
  773SOL    HW2 2563   2.881   0.422   0.182
  774SOL     OW 2564   1.486   3.643   2.839
  774SOL    HW1 2565   1.516   3.704   2.771
  774SOL    HW2 2566   1.564   3.626   2.891
  775SOL     OW 2567   1.662   2.745   3.105
  775SOL    HW1 2568   1.658   2.658   3.064
  775SOL    HW2 2569   1.652   2.806   3.032
  776SOL     OW 2570   1.216   2.181   2.319
  776SOL    HW1 2571   1.279   2.109   2.312
  776SOL    HW2 2572   1.245   2.231   2.395
  777SOL     OW 2573   0.592   2.600   2.533
  777SOL    HW1 2574   0.630   2.687   2.519
  777SOL    HW2 2575   0.523   2.593   2.467
  778SOL     OW 2576   3.951   0.591   0.246
  778SOL    HW1 2577   3.934   0.681   0.275
  778SOL    HW2 2578   3.913   0.586   0.159
  779SOL     OW 2579   0.861   3.228   1.897
  779SOL    HW1 2580   0.826   3.254   1.982
  779SOL    HW2 2581   0.879   3.311   1.852
  780SOL     OW 2582   0.664   3.654   2.807
  780SOL    HW1 2583   0.644   3.744   2.783
  780SOL    HW2 2584   0.758   3.646   2.790
  781SOL     OW 2585   0.868   2.830   2.716
  781SOL    HW1 2586   0.918   2.758   2.755
  781SOL    HW2 2587   0.833   2.878   2.790
  782SOL     OW 2588   1.077   2.849   1.950
  782SOL    HW1 2589   1.057   2.901   1.872
  782SOL    HW2 2590   1.153   2.796   1.924
  783SOL     OW 2591   1.853   3.413   2.704
  783SOL    HW1 2592   1.772   3.407   2.653
  783SOL    HW2 2593   1.837   3.359   2.781
  784SOL     OW 2594   0.107   3.052   2.479
  784SOL    HW1 2595   0.103   3.048   2.575
  784SOL    HW2 2596   0.196   3.023   2.458
  785SOL     OW 2597   1.834   2.041   3.104
  785SOL    HW1 2598   1.820   1.947   3.120
  785SOL    HW2 2599   1.837   2.049   3.008
  786SOL     OW 2600   0.465   2.316   2.405
  786SOL    HW1 2601   0.483   2.243   2.346
  786SOL    HW2 2602   0.407   2.279   2.471
  787SOL     OW 2603   1.707   3.348   2.949
  787SOL    HW1 2604   1.622   3.329   2.910
  787SOL    HW2 2605   1.715   3.284   3.020
  788SOL     OW 2606   2.525   0.223   0.045
  788SOL    HW1 2607   2.578   0.162   0.096
  788SOL    HW2 2608   2.540   0.199  -0.046
  789SOL     OW 2609   0.829   3.438   2.538
  789SOL    HW1 2610   0.812   3.493   2.462
  789SOL    HW2 2611   0.753   3.380   2.544
  790SOL     OW 2612   1.423   2.109   2.965
  790SOL    HW1 2613   1.467   2.043   3.018
  790SOL    HW2 2614   1.365   2.155   3.026
  791SOL     OW 2615   1.007   1.883   2.997
  791SOL    HW1 2616   0.971   1.811   2.947
  791SOL    HW2 2617   1.095   1.854   3.021
  792SOL     OW 2618   0.774   3.194   2.175
  792SOL    HW1 2619   0.744   3.103   2.184
  792SOL    HW2 2620   0.853   3.199   2.228
  793SOL     OW 2621   2.819   1.218   0.037
  793SOL    HW1 2622   2.816   1.308   0.070
  793SOL    HW2 2623   2.908   1.208   0.002
  794SOL     OW 2624   1.353   1.916   2.028
  794SOL    HW1 2625   1.382   1.850   1.964
  794SOL    HW2 2626   1.265   1.887   2.054
  795SOL     OW 2627   1.298   2.327   2.537
  795SOL    HW1 2628   1.245   2.406   2.544
  795SOL    HW2 2629   1.290   2.285   2.622
  796SOL     OW 2630   1.586   2.065   2.742
  796SOL    HW1 2631   1.523   2.087   2.810
  796SOL    HW2 2632   1.587   2.142   2.684
  797SOL     OW 2633   0.049   2.931   2.135
  797SOL    HW1 2634   0.140   2.899   2.133
  797SOL    HW2 2635   0.014   2.895   2.217
  798SOL     OW 2636   0.886   3.515   2.202
  798SOL    HW1 2637   0.812   3.499   2.144
  798SOL    HW2 2638   0.859   3.589   2.256
  799SOL     OW 2639   0.206   3.989   0.994
  799SOL    HW1 2640   0.242   3.965   1.080
  799SOL    HW2 2641   0.118   3.951   0.994
  800SOL     OW 2642   4.408   4.085   0.655
  800SOL    HW1 2643   4.322   4.126   0.641
  800SOL    HW2 2644   4.408   4.009   0.597
  801SOL     OW 2645   1.753   4.314   0.211
  801SOL    HW1 2646   1.689   4.305   0.141
  801SOL    HW2 2647   1.736   4.241   0.270
  802SOL     OW 2648   0.444   4.127   1.498
  802SOL    HW1 2649   0.522   4.072   1.495
  802SOL    HW2 2650   0.371   4.066   1.499
  803SOL     OW 2651   1.617   4.168   0.743
  803SOL    HW1 2652   1.547   4.186   0.680
  803SOL    HW2 2653   1.612   4.238   0.807
  804SOL     OW 2654   1.599   3.850   1.462
  804SOL    HW1 2655   1.597   3.935   1.419
  804SOL    HW2 2656   1.584   3.870   1.554
  805SOL     OW 2657   0.143   4.318   0.590
  805SOL    HW1 2658   0.094   4.238   0.609
  805SOL    HW2 2659   0.089   4.388   0.626
  806SOL     OW 2660   0.824   3.735   0.520
  806SOL    HW1 2661   0.858   3.821   0.496
  806SOL    HW2 2662   0.729   3.748   0.528
  807SOL     OW 2663   0.332   3.973   1.775
  807SOL    HW1 2664   0.378   4.053   1.800
  807SOL    HW2 2665   0.242   3.987   1.804
  808SOL     OW 2666   1.277   4.075   0.936
  808SOL    HW1 2667   1.188   4.042   0.943
  808SOL    HW2 2668   1.328   4.021   0.996
  809SOL     OW 2669   0.831   4.270   1.447
  809SOL    HW1 2670   0.789   4.282   1.532
  809SOL    HW2 2671   0.759   4.247   1.389
  810SOL     OW 2672   1.400   4.197   1.677
  810SOL    HW1 2673   1.395   4.225   1.768
  810SOL    HW2 2674   1.455   4.118   1.679
  811SOL     OW 2675   0.996   4.146   1.235
  811SOL    HW1 2676   0.930   4.169   1.299
  811SOL    HW2 2677   0.952   4.086   1.174
  812SOL     OW 2678   1.060  -0.008   0.433
  812SOL    HW1 2679   1.078   0.038   0.515
  812SOL    HW2 2680   0.964  -0.015   0.430
  813SOL     OW 2681   0.086   0.110   0.797
  813SOL    HW1 2682   0.181   0.124   0.793
  813SOL    HW2 2683   0.048   0.195   0.771
  814SOL     OW 2684   0.886   4.075   0.202
  814SOL    HW1 2685   0.934   4.115   0.129
  814SOL    HW2 2686   0.877   3.983   0.176
  815SOL     OW 2687   1.708   4.305   1.822
  815SOL    HW1 2688   1.700   4.385   1.770
  815SOL    HW2 2689   1.729   4.237   1.759
  816SOL     OW 2690   0.553   3.904   0.891
  816SOL    HW1 2691   0.555   3.936   0.981
  816SOL    HW2 2692   0.541   3.983   0.838
  817SOL     OW 2693   1.489   0.038   0.717
  817SOL    HW1 2694   1.458  -0.008   0.796
  817SOL    HW2 2695   1.528   0.119   0.750
  818SOL     OW 2696   0.198   4.002   1.482
  818SOL    HW1 2697   0.132   4.067   1.503
  818SOL    HW2 2698   0.182   3.930   1.543
  819SOL     OW 2699   1.403   3.831   0.441
  819SOL    HW1 2700   1.387   3.819   0.348
  819SOL    HW2 2701   1.498   3.840   0.449
  820SOL     OW 2702   1.532   3.945   1.721
  820SOL    HW1 2703   1.543   3.966   1.814
  820SOL    HW2 2704   1.462   3.880   1.720
  821SOL     OW 2705   0.619   3.823   0.125
  821SOL    HW1 2706   0.714   3.812   0.132
  821SOL    HW2 2707   0.601   3.817   0.031
  822SOL     OW 2708   0.769   3.996   1.756
  822SOL    HW1 2709   0.846   3.940   1.754
  822SOL    HW2 2710   0.721   3.970   1.834
  823SOL     OW 2711   1.351   4.311   1.426
  823SOL    HW1 2712   1.366   4.274   1.513
  823SOL    HW2 2713   1.399   4.394   1.426
  824SOL     OW 2714   0.922   4.220   0.909
  824SOL    HW1 2715   0.893   4.198   0.820
  824SOL    HW2 2716   0.961   4.139   0.942
  825SOL     OW 2717   0.556   3.777   0.512
  825SOL    HW1 2718   0.478   3.774   0.567
  825SOL    HW2 2719   0.550   3.861   0.466
  826SOL     OW 2720   0.289   3.746   0.153
  826SOL    HW1 2721   0.333   3.831   0.155
  826SOL    HW2 2722   0.344   3.690   0.208
  827SOL     OW 2723   0.942   3.976   0.455
  827SOL    HW1 2724   0.920   4.012   0.369
  827SOL    HW2 2725   1.036   3.991   0.463
  828SOL     OW 2726   1.078   4.335   1.540
  828SOL    HW1 2727   0.996   4.314   1.495
  828SOL    HW2 2728   1.139   4.353   1.469
  829SOL     OW 2729   1.024   4.259   0.007
  829SOL    HW1 2730   0.977   4.339   0.029
  829SOL    HW2 2731   1.099   4.257   0.067
  830SOL     OW 2732   0.075   4.302   1.389
  830SOL    HW1 2733   0.165   4.293   1.356
  830SOL    HW2 2734   0.085   4.312   1.484
  831SOL     OW 2735   0.559   3.947   1.163
  831SOL    HW1 2736   0.598   3.871   1.206
  831SOL    HW2 2737   0.468   3.947   1.191
  832SOL     OW 2738   0.873   4.164   0.654
  832SOL    HW1 2739   0.839   4.240   0.607
  832SOL    HW2 2740   0.885   4.098   0.587
  833SOL     OW 2741   1.017   3.775   0.748
  833SOL    HW1 2742   0.955   3.771   0.676
  833SOL    HW2 2743   0.994   3.701   0.804
  834SOL     OW 2744   1.477   4.302   0.965
  834SOL    HW1 2745   1.414   4.234   0.988
  834SOL    HW2 2746   1.527   4.318   1.045
  835SOL     OW 2747   0.522   3.976   0.326
  835SOL    HW1 2748   0.556   3.912   0.263
  835SOL    HW2 2749   0.527   4.060   0.280
  836SOL     OW 2750   0.918   3.820   1.395
  836SOL    HW1 2751   0.942   3.800   1.304
  836SOL    HW2 2752   0.997   3.859   1.432
  837SOL     OW 2753   1.265   4.100   1.276
  837SOL    HW1 2754   1.297   4.178   1.321
  837SOL    HW2 2755   1.174   4.121   1.253
  838SOL     OW 2756   0.549   4.251   0.869
  838SOL    HW1 2757   0.541   4.303   0.789
  838SOL    HW2 2758   0.608   4.302   0.924
  839SOL     OW 2759   1.571   4.324   0.477
  839SOL    HW1 2760   1.537   4.366   0.555
  839SOL    HW2 2761   1.636   4.386   0.443
  840SOL     OW 2762   0.998   3.845   1.756
  840SOL    HW1 2763   1.056   3.919   1.735
  840SOL    HW2 2764   1.047   3.768   1.730
  841SOL     OW 2765   0.501   3.763   1.747
  841SOL    HW1 2766   0.462   3.707   1.680
  841SOL    HW2 2767   0.442   3.837   1.755
  842SOL     OW 2768   1.199   4.250   0.253
  842SOL    HW1 2769   1.221   4.169   0.300
  842SOL    HW2 2770   1.152   4.303   0.317
  843SOL     OW 2771   0.299   3.919   1.243
  843SOL    HW1 2772   0.263   3.953   1.324
  843SOL    HW2 2773   0.282   3.825   1.247
  844SOL     OW 2774   0.731   4.367   1.046
  844SOL    HW1 2775   0.798   4.328   0.989
  844SOL    HW2 2776   0.714   4.452   1.006
  845SOL     OW 2777   0.311   3.769   0.633
  845SOL    HW1 2778   0.281   3.860   0.635
  845SOL    HW2 2779   0.313   3.743   0.726
  846SOL     OW 2780   1.619   4.081   0.372
  846SOL    HW1 2781   1.649   4.022   0.441
  846SOL    HW2 2782   1.594   4.161   0.417
  847SOL     OW 2783   1.530   4.013   0.128
  847SOL    HW1 2784   1.450   3.964   0.145
  847SOL    HW2 2785   1.562   4.038   0.214
  848SOL     OW 2786   0.330   4.231   1.028
  848SOL    HW1 2787   0.292   4.148   0.999
  848SOL    HW2 2788   0.402   4.247   0.966
  849SOL     OW 2789   1.140   4.081   1.693
  849SOL    HW1 2790   1.082   4.138   1.743
  849SOL    HW2 2791   1.214   4.137   1.669
  850SOL     OW 2792   1.162   3.923   1.468
  850SOL    HW1 2793   1.151   3.981   1.544
  850SOL    HW2 2794   1.201   3.979   1.401
  851SOL     OW 2795   0.040   4.292   1.104
  851SOL    HW1 2796   0.130   4.271   1.077
  851SOL    HW2 2797   0.039   4.274   1.198
  852SOL     OW 2798   0.171   4.251   1.673
  852SOL    HW1 2799   0.262   4.234   1.647
  852SOL    HW2 2800   0.174   4.337   1.715
  853SOL     OW 2801   0.797   4.312   0.299
  853SOL    HW1 2802   0.822   4.221   0.284
  853SOL    HW2 2803   0.727   4.308   0.364
  854SOL     OW 2804   1.643   4.325   1.190
  854SOL    HW1 2805   1.631   4.264   1.262
  854SOL    HW2 2806   1.725   4.299   1.149
  855SOL     OW 2807   0.676   4.183   1.247
  855SOL    HW1 2808   0.633   4.104   1.213
  855SOL    HW2 2809   0.680   4.243   1.173
  856SOL     OW 2810   0.899   3.810   0.141
  856SOL    HW1 2811   0.933   3.835   0.055
  856SOL    HW2 2812   0.972   3.767   0.184
  857SOL     OW 2813   1.726   3.869   0.520
  857SOL    HW1 2814   1.794   3.854   0.454
  857SOL    HW2 2815   1.707   3.782   0.554
  858SOL     OW 2816   1.838   3.897   0.969
  858SOL    HW1 2817   1.866   3.812   0.934
  858SOL    HW2 2818   1.752   3.912   0.930
  859SOL     OW 2819   0.281   4.048   0.738
  859SOL    HW1 2820   0.198   4.077   0.699
  859SOL    HW2 2821   0.259   4.028   0.829
  860SOL     OW 2822   1.024   3.961   0.966
  860SOL    HW1 2823   1.017   3.914   0.882
  860SOL    HW2 2824   1.017   3.893   1.032
  861SOL     OW 2825   1.725   4.111   1.376
  861SOL    HW1 2826   1.794   4.177   1.380
  861SOL    HW2 2827   1.761   4.040   1.323
  862SOL     OW 2828   0.674   3.919   1.499
  862SOL    HW1 2829   0.759   3.901   1.458
  862SOL    HW2 2830   0.697   3.952   1.586
  863SOL     OW 2831   2.255   1.840   3.109
  863SOL    HW1 2832   2.208   1.779   3.052
  863SOL    HW2 2833   2.290   1.906   3.049
  864SOL     OW 2834   0.046   3.886   0.304
  864SOL    HW1 2835   0.106   3.941   0.253
  864SOL    HW2 2836   0.101   3.815   0.337
  865SOL     OW 2837   0.736   4.271   1.701
  865SOL    HW1 2838   0.757   4.322   1.780
  865SOL    HW2 2839   0.756   4.181   1.726
  866SOL     OW 2840   1.217   4.039   0.455
  866SOL    HW1 2841   1.281   3.969   0.449
  866SOL    HW2 2842   1.243   4.090   0.531
  867SOL     OW 2843   1.754   4.094   1.649
  867SOL    HW1 2844   1.740   4.101   1.555
  867SOL    HW2 2845   1.689   4.030   1.679
  868SOL     OW 2846   1.081   0.280   0.058
  868SOL    HW1 2847   1.064   0.374   0.050
  868SOL    HW2 2848   1.170   0.269   0.023
  869SOL     OW 2849   1.837   3.904   1.239
  869SOL    HW1 2850   1.801   3.817   1.254
  869SOL    HW2 2851   1.833   3.916   1.144
  870SOL     OW 2852   0.479   4.156   0.562
  870SOL    HW1 2853   0.466   4.104   0.483
  870SOL    HW2 2854   0.407   4.132   0.619
  871SOL     OW 2855   0.328   4.293   1.293
  871SOL    HW1 2856   0.388   4.239   1.345
  871SOL    HW2 2857   0.343   4.265   1.202
  872SOL     OW 2858   1.432   3.949   1.121
  872SOL    HW1 2859   1.442   3.863   1.163
  872SOL    HW2 2860   1.380   4.000   1.183
  873SOL     OW 2861   1.009   3.742   1.142
  873SOL    HW1 2862   0.954   3.675   1.102
  873SOL    HW2 2863   1.096   3.703   1.144
  874SOL     OW 2864   1.347   3.804   0.179
  874SOL    HW1 2865   1.407   3.752   0.126
  874SOL    HW2 2866   1.267   3.752   0.184
  875SOL     OW 2867   1.299   4.173   0.680
  875SOL    HW1 2868   1.264   4.262   0.689
  875SOL    HW2 2869   1.294   4.137   0.769
  876SOL     OW 2870   1.586   3.927   0.880
  876SOL    HW1 2871   1.525   3.949   0.951
  876SOL    HW2 2872   1.587   4.004   0.824
  877SOL     OW 2873   0.200   4.000   2.851
  877SOL    HW1 2874   0.223   3.961   2.936
  877SOL    HW2 2875   0.117   3.960   2.827
  878SOL     OW 2876   4.408   4.095   2.506
  878SOL    HW1 2877   4.341   4.130   2.564
  878SOL    HW2 2878   4.396   4.000   2.510
  879SOL     OW 2879   1.712   4.335   2.098
  879SOL    HW1 2880   1.723   4.326   2.004
  879SOL    HW2 2881   1.726   4.246   2.132
  880SOL     OW 2882   2.638   1.915   0.218
  880SOL    HW1 2883   2.720   1.866   0.219
  880SOL    HW2 2884   2.570   1.848   0.231
  881SOL     OW 2885   1.617   4.167   2.607
  881SOL    HW1 2886   1.553   4.190   2.540
  881SOL    HW2 2887   1.611   4.237   2.672
  882SOL     OW 2888   3.778   1.652   0.232
  882SOL    HW1 2889   3.794   1.737   0.191
  882SOL    HW2 2890   3.810   1.661   0.321
  883SOL     OW 2891   0.128   4.332   2.435
  883SOL    HW1 2892   0.089   4.248   2.458
  883SOL    HW2 2893   0.054   4.393   2.434
  884SOL     OW 2894   0.822   3.723   2.369
  884SOL    HW1 2895   0.859   3.810   2.351
  884SOL    HW2 2896   0.728   3.740   2.382
  885SOL     OW 2897   1.277   4.076   2.796
  885SOL    HW1 2898   1.188   4.041   2.805
  885SOL    HW2 2899   1.330   4.024   2.856
  886SOL     OW 2900   3.023   2.058   0.200
  886SOL    HW1 2901   2.990   2.112   0.272
  886SOL    HW2 2902   2.945   2.036   0.149
  887SOL     OW 2903   0.994   4.143   3.097
  887SOL    HW1 2904   0.932   4.162   3.168
  887SOL    HW2 2905   0.944   4.088   3.036
  888SOL     OW 2906   1.068  -0.009   2.299
  888SOL    HW1 2907   1.090   0.036   2.380
  888SOL    HW2 2908   0.973  -0.003   2.294
  889SOL     OW 2909   0.083   0.133   2.678
  889SOL    HW1 2910   0.169   0.101   2.649
  889SOL    HW2 2911   0.060   0.201   2.615
  890SOL     OW 2912   0.896   4.064   2.057
  890SOL    HW1 2913   0.935   4.128   1.997
  890SOL    HW2 2914   0.916   3.979   2.018
  891SOL     OW 2915   0.558   3.906   2.756
  891SOL    HW1 2916   0.557   3.936   2.847
  891SOL    HW2 2917   0.544   3.985   2.704
  892SOL     OW 2918   1.487   0.039   2.581
  892SOL    HW1 2919   1.458  -0.008   2.660
  892SOL    HW2 2920   1.527   0.119   2.615
  893SOL     OW 2921   2.390   1.796   0.249
  893SOL    HW1 2922   2.313   1.838   0.211
  893SOL    HW2 2923   2.386   1.819   0.342
  894SOL     OW 2924   1.401   3.829   2.295
  894SOL    HW1 2925   1.392   3.805   2.203
  894SOL    HW2 2926   1.495   3.841   2.308
  895SOL     OW 2927   0.632   3.851   1.968
  895SOL    HW1 2928   0.700   3.786   1.985
  895SOL    HW2 2929   0.584   3.817   1.893
  896SOL     OW 2930   3.559   2.114   0.164
  896SOL    HW1 2931   3.604   2.061   0.229
  896SOL    HW2 2932   3.556   2.202   0.202
  897SOL     OW 2933   0.920   4.218   2.773
  897SOL    HW1 2934   0.891   4.197   2.684
  897SOL    HW2 2935   0.963   4.138   2.803
  898SOL     OW 2936   0.557   3.776   2.370
  898SOL    HW1 2937   0.480   3.775   2.426
  898SOL    HW2 2938   0.552   3.861   2.324
  899SOL     OW 2939   0.321   3.755   2.017
  899SOL    HW1 2940   0.373   3.835   2.014
  899SOL    HW2 2941   0.370   3.696   2.073
  900SOL     OW 2942   0.939   3.973   2.318
  900SOL    HW1 2943   0.917   4.007   2.232
  900SOL    HW2 2944   1.033   3.985   2.326
  901SOL     OW 2945   3.276   2.124   0.258
  901SOL    HW1 2946   3.192   2.125   0.213
  901SOL    HW2 2947   3.336   2.170   0.198
  902SOL     OW 2948   1.025   4.253   1.894
  902SOL    HW1 2949   1.012   4.339   1.855
  902SOL    HW2 2950   1.087   4.268   1.965
  903SOL     OW 2951   2.244   2.067   0.129
  903SOL    HW1 2952   2.332   2.066   0.092
  903SOL    HW2 2953   2.245   2.138   0.193
  904SOL     OW 2954   0.563   3.950   3.031
  904SOL    HW1 2955   0.596   3.868   3.067
  904SOL    HW2 2956   0.470   3.950   3.052
  905SOL     OW 2957   0.872   4.165   2.516
  905SOL    HW1 2958   0.842   4.240   2.465
  905SOL    HW2 2959   0.887   4.096   2.451
  906SOL     OW 2960   1.016   3.777   2.611
  906SOL    HW1 2961   0.958   3.769   2.536
  906SOL    HW2 2962   0.995   3.702   2.666
  907SOL     OW 2963   1.473   4.303   2.827
  907SOL    HW1 2964   1.412   4.233   2.849
  907SOL    HW2 2965   1.523   4.318   2.906
  908SOL     OW 2966   0.532   3.983   2.191
  908SOL    HW1 2967   0.572   3.938   2.117
  908SOL    HW2 2968   0.516   4.072   2.160
  909SOL     OW 2969   3.100   1.625   0.155
  909SOL    HW1 2970   3.126   1.591   0.070
  909SOL    HW2 2971   3.180   1.662   0.192
  910SOL     OW 2972   3.465   1.915   0.011
  910SOL    HW1 2973   3.497   1.989   0.063
  910SOL    HW2 2974   3.370   1.928   0.007
  911SOL     OW 2975   0.555   4.251   2.723
  911SOL    HW1 2976   0.538   4.308   2.649
  911SOL    HW2 2977   0.607   4.305   2.783
  912SOL     OW 2978   1.566   4.313   2.345
  912SOL    HW1 2979   1.539   4.368   2.419
  912SOL    HW2 2980   1.625   4.368   2.294
  913SOL     OW 2981   1.204   4.252   2.117
  913SOL    HW1 2982   1.224   4.170   2.162
  913SOL    HW2 2983   1.156   4.303   2.182
  914SOL     OW 2984   2.497   1.723  -0.001
  914SOL    HW1 2985   2.450   1.749   0.077
  914SOL    HW2 2986   2.485   1.628  -0.007
  915SOL     OW 2987   0.733   4.372   2.906
  915SOL    HW1 2988   0.797   4.327   2.851
  915SOL    HW2 2989   0.714   4.454   2.861
  916SOL     OW 2990   0.312   3.772   2.491
  916SOL    HW1 2991   0.271   3.858   2.501
  916SOL    HW2 2992   0.313   3.736   2.579
  917SOL     OW 2993   1.617   4.077   2.225
  917SOL    HW1 2994   1.648   4.018   2.294
  917SOL    HW2 2995   1.590   4.155   2.272
  918SOL     OW 2996   1.526   3.994   1.983
  918SOL    HW1 2997   1.462   3.929   2.011
  918SOL    HW2 2998   1.561   4.030   2.064
  919SOL     OW 2999   0.339   4.228   2.886
  919SOL    HW1 3000   0.296   4.146   2.862
  919SOL    HW2 3001   0.407   4.240   2.821
  920SOL     OW 3002   3.326   1.735   0.261
  920SOL    HW1 3003   3.334   1.811   0.318
  920SOL    HW2 3004   3.393   1.747   0.194
  921SOL     OW 3005   0.038   4.295   2.951
  921SOL    HW1 3006   0.120   4.251   2.927
  921SOL    HW2 3007   0.019   4.265   3.040
  922SOL     OW 3008   0.765   4.317   2.115
  922SOL    HW1 3009   0.808   4.231   2.114
  922SOL    HW2 3010   0.732   4.326   2.205
  923SOL     OW 3011   1.638   4.325   3.046
  923SOL    HW1 3012   1.633   4.262   3.118
  923SOL    HW2 3013   1.721   4.304   3.002
  924SOL     OW 3014   0.641   4.210   3.116
  924SOL    HW1 3015   0.617   4.121   3.088
  924SOL    HW2 3016   0.667   4.254   3.036
  925SOL     OW 3017   1.724   3.868   2.377
  925SOL    HW1 3018   1.794   3.852   2.313
  925SOL    HW2 3019   1.705   3.783   2.414
  926SOL     OW 3020   1.838   3.893   2.826
  926SOL    HW1 3021   1.867   3.805   2.801
  926SOL    HW2 3022   1.751   3.902   2.787
  927SOL     OW 3023   0.278   4.054   2.593
  927SOL    HW1 3024   0.194   4.078   2.553
  927SOL    HW2 3025   0.255   4.032   2.683
  928SOL     OW 3026   1.022   3.958   2.827
  928SOL    HW1 3027   1.020   3.915   2.741
  928SOL    HW2 3028   1.002   3.888   2.889
  929SOL     OW 3029   3.918   1.915   0.132
  929SOL    HW1 3030   3.993   1.973   0.123
  929SOL    HW2 3031   3.942   1.837   0.082
  930SOL     OW 3032   2.884   1.770   0.239
  930SOL    HW1 3033   2.961   1.730   0.200
  930SOL    HW2 3034   2.891   1.749   0.332
  931SOL     OW 3035   0.073   4.051   1.845
  931SOL    HW1 3036  -0.019   4.057   1.872
  931SOL    HW2 3037   0.089   4.131   1.796
  932SOL     OW 3038   0.078   3.863   2.133
  932SOL    HW1 3039   0.060   3.928   2.201
  932SOL    HW2 3040   0.145   3.807   2.171
  933SOL     OW 3041   1.217   4.039   2.314
  933SOL    HW1 3042   1.280   3.968   2.309
  933SOL    HW2 3043   1.243   4.089   2.391
  934SOL     OW 3044   1.100   0.278   1.948
  934SOL    HW1 3045   1.104   0.361   1.900
  934SOL    HW2 3046   1.191   0.247   1.950
  935SOL     OW 3047   1.812   3.903   3.099
  935SOL    HW1 3048   1.815   3.809   3.116
  935SOL    HW2 3049   1.824   3.910   3.004
  936SOL     OW 3050   0.462   4.167   2.414
  936SOL    HW1 3051   0.472   4.092   2.355
  936SOL    HW2 3052   0.399   4.138   2.480
  937SOL     OW 3053   2.501   2.084   0.041
  937SOL    HW1 3054   2.562   2.028   0.089
  937SOL    HW2 3055   2.519   2.066  -0.051
  938SOL     OW 3056   1.432   3.944   2.977
  938SOL    HW1 3057   1.472   3.875   3.030
  938SOL    HW2 3058   1.384   3.998   3.040
  939SOL     OW 3059   0.987   3.730   2.999
  939SOL    HW1 3060   0.918   3.674   2.966
  939SOL    HW2 3061   1.068   3.683   2.981
  940SOL     OW 3062   1.352   3.777   2.027
  940SOL    HW1 3063   1.381   3.710   1.965
  940SOL    HW2 3064   1.264   3.749   2.054
  941SOL     OW 3065   1.295   4.173   2.540
  941SOL    HW1 3066   1.268   4.264   2.552
  941SOL    HW2 3067   1.294   4.136   2.629
  942SOL     OW 3068   1.584   3.922   2.738
  942SOL    HW1 3069   1.525   3.942   2.811
  942SOL    HW2 3070   1.586   4.002   2.686
  943SOL     OW 3071   2.098   0.602   0.134
  943SOL    HW1 3072   2.008   0.614   0.163
  943SOL    HW2 3073   2.093   0.598   0.039
  944SOL     OW 3074   2.076   0.278   0.993
  944SOL    HW1 3075   2.116   0.246   1.074
  944SOL    HW2 3076   1.983   0.255   1.002
  945SOL     OW 3077   1.866   0.373   0.654
  945SOL    HW1 3078   1.782   0.407   0.685
  945SOL    HW2 3079   1.843   0.319   0.578
  946SOL     OW 3080   2.428   1.290   1.177
  946SOL    HW1 3081   2.342   1.294   1.137
  946SOL    HW2 3082   2.444   1.379   1.209
  947SOL     OW 3083   3.435   1.515   0.711
  947SOL    HW1 3084   3.386   1.492   0.790
  947SOL    HW2 3085   3.368   1.524   0.643
  948SOL     OW 3086   2.999   0.696   0.706
  948SOL    HW1 3087   3.043   0.779   0.688
  948SOL    HW2 3088   2.948   0.712   0.785
  949SOL     OW 3089   2.616   1.142   1.044
  949SOL    HW1 3090   2.547   1.178   1.100
  949SOL    HW2 3091   2.652   1.218   0.999
  950SOL     OW 3092   2.728   0.776   1.822
  950SOL    HW1 3093   2.716   0.848   1.883
  950SOL    HW2 3094   2.752   0.818   1.739
  951SOL     OW 3095   2.540   0.989   0.662
  951SOL    HW1 3096   2.611   0.988   0.726
  951SOL    HW2 3097   2.478   1.053   0.696
  952SOL     OW 3098   2.573   1.150   1.814
  952SOL    HW1 3099   2.621   1.228   1.841
  952SOL    HW2 3100   2.491   1.184   1.777
  953SOL     OW 3101   2.192   1.425   1.067
  953SOL    HW1 3102   2.120   1.386   1.018
  953SOL    HW2 3103   2.242   1.475   1.003
  954SOL     OW 3104   3.322   1.500   1.356
  954SOL    HW1 3105   3.374   1.580   1.364
  954SOL    HW2 3106   3.260   1.504   1.428
  955SOL     OW 3107   2.303   0.398   1.490
  955SOL    HW1 3108   2.386   0.350   1.491
  955SOL    HW2 3109   2.237   0.331   1.503
  956SOL     OW 3110   3.471   0.458   0.736
  956SOL    HW1 3111   3.392   0.471   0.685
  956SOL    HW2 3112   3.485   0.541   0.782
  957SOL     OW 3113   2.062   1.717   0.478
  957SOL    HW1 3114   2.103   1.791   0.522
  957SOL    HW2 3115   2.115   1.703   0.400
  958SOL     OW 3116   2.998   1.342   1.693
  958SOL    HW1 3117   3.040   1.336   1.779
  958SOL    HW2 3118   2.947   1.262   1.686
  959SOL     OW 3119   2.091   1.446   0.537
  959SOL    HW1 3120   2.067   1.538   0.541
  959SOL    HW2 3121   2.032   1.403   0.599
  960SOL     OW 3122   2.118   1.089   0.890
  960SOL    HW1 3123   2.117   1.003   0.932
  960SOL    HW2 3124   2.061   1.143   0.945
  961SOL     OW 3125   2.471   1.792   1.428
  961SOL    HW1 3126   2.390   1.774   1.475
  961SOL    HW2 3127   2.495   1.881   1.454
  962SOL     OW 3128   1.977   0.655   0.561
  962SOL    HW1 3129   1.949   0.566   0.584
  962SOL    HW2 3130   1.969   0.705   0.642
  963SOL     OW 3131   1.953   1.584   0.194
  963SOL    HW1 3132   1.910   1.501   0.173
  963SOL    HW2 3133   1.889   1.632   0.246
  964SOL     OW 3134   3.549   0.926   0.638
  964SOL    HW1 3135   3.633   0.882   0.624
  964SOL    HW2 3136   3.545   0.993   0.570
  965SOL     OW 3137   1.985   0.745   1.584
  965SOL    HW1 3138   2.077   0.771   1.590
  965SOL    HW2 3139   1.936   0.826   1.592
  966SOL     OW 3140   2.475   1.385   0.741
  966SOL    HW1 3141   2.430   1.302   0.750
  966SOL    HW2 3142   2.458   1.413   0.651
  967SOL     OW 3143   3.150   1.238   1.424
  967SOL    HW1 3144   3.181   1.171   1.363
  967SOL    HW2 3145   3.209   1.231   1.499
  968SOL     OW 3146   2.682   0.019   0.538
  968SOL    HW1 3147   2.705   0.109   0.514
  968SOL    HW2 3148   2.587   0.015   0.527
  969SOL     OW 3149   2.052   0.966   1.273
  969SOL    HW1 3150   2.137   0.924   1.258
  969SOL    HW2 3151   1.990   0.913   1.221
  970SOL     OW 3152   3.045   1.807   1.622
  970SOL    HW1 3153   3.058   1.867   1.549
  970SOL    HW2 3154   3.063   1.720   1.586
  971SOL     OW 3155   2.180   0.255   1.784
  971SOL    HW1 3156   2.238   0.323   1.817
  971SOL    HW2 3157   2.100   0.263   1.837
  972SOL     OW 3158   3.327   1.421   0.950
  972SOL    HW1 3159   3.260   1.435   1.016
  972SOL    HW2 3160   3.316   1.329   0.924
  973SOL     OW 3161   3.530   1.733   0.560
  973SOL    HW1 3162   3.500   1.685   0.482
  973SOL    HW2 3163   3.512   1.673   0.633
  974SOL     OW 3164   3.144   0.354   0.935
  974SOL    HW1 3165   3.053   0.324   0.941
  974SOL    HW2 3166   3.191   0.299   0.998
  975SOL     OW 3167   2.655   0.617   1.451
  975SOL    HW1 3168   2.627   0.592   1.539
  975SOL    HW2 3169   2.612   0.553   1.394
  976SOL     OW 3170   3.258   0.477   1.682
  976SOL    HW1 3171   3.257   0.524   1.765
  976SOL    HW2 3172   3.316   0.402   1.697
  977SOL     OW 3173   2.816   0.887   1.583
  977SOL    HW1 3174   2.870   0.816   1.548
  977SOL    HW2 3175   2.767   0.921   1.507
  978SOL     OW 3176   2.861   0.432   1.230
  978SOL    HW1 3177   2.785   0.423   1.289
  978SOL    HW2 3178   2.841   0.374   1.157
  979SOL     OW 3179   2.912   0.709   0.436
  979SOL    HW1 3180   2.935   0.691   0.528
  979SOL    HW2 3181   2.826   0.668   0.425
  980SOL     OW 3182   1.950   0.819   0.778
  980SOL    HW1 3183   2.032   0.815   0.828
  980SOL    HW2 3184   1.907   0.898   0.811
  981SOL     OW 3185   1.988   1.854   1.579
  981SOL    HW1 3186   1.990   1.832   1.672
  981SOL    HW2 3187   1.898   1.837   1.552
  982SOL     OW 3188   3.578   0.576   1.826
  982SOL    HW1 3189   3.537   0.649   1.781
  982SOL    HW2 3190   3.598   0.513   1.757
  983SOL     OW 3191   3.237   1.151   0.539
  983SOL    HW1 3192   3.313   1.159   0.482
  983SOL    HW2 3193   3.171   1.208   0.500
  984SOL     OW 3194   2.434   0.193   0.893
  984SOL    HW1 3195   2.424   0.217   0.985
  984SOL    HW2 3196   2.427   0.276   0.846
  985SOL     OW 3197   2.872   1.444   0.472
  985SOL    HW1 3198   2.807   1.511   0.448
  985SOL    HW2 3199   2.883   1.454   0.566
  986SOL     OW 3200   2.217   1.809   0.861
  986SOL    HW1 3201   2.259   1.724   0.868
  986SOL    HW2 3202   2.286   1.872   0.881
  987SOL     OW 3203   3.662   1.052   0.873
  987SOL    HW1 3204   3.607   1.058   0.795
  987SOL    HW2 3205   3.600   1.058   0.946
  988SOL     OW 3206   3.089   1.539   1.514
  988SOL    HW1 3207   3.076   1.466   1.574
  988SOL    HW2 3208   3.028   1.522   1.442
  989SOL     OW 3209   3.340   0.743   0.727
  989SOL    HW1 3210   3.332   0.703   0.813
  989SOL    HW2 3211   3.415   0.802   0.734
  990SOL     OW 3212   2.328   1.266   1.738
  990SOL    HW1 3213   2.302   1.270   1.646
  990SOL    HW2 3214   2.246   1.263   1.787
  991SOL     OW 3215   2.056   0.263   1.504
  991SOL    HW1 3216   1.986   0.327   1.490
  991SOL    HW2 3217   2.063   0.256   1.599
  992SOL     OW 3218   3.521   1.387   0.102
  992SOL    HW1 3219   3.486   1.474   0.083
  992SOL    HW2 3220   3.462   1.351   0.169
  993SOL     OW 3221   3.232   0.138   0.379
  993SOL    HW1 3222   3.231   0.054   0.332
  993SOL    HW2 3223   3.315   0.138   0.426
  994SOL     OW 3224   2.118   1.791   1.231
  994SOL    HW1 3225   2.170   1.725   1.277
  994SOL    HW2 3226   2.108   1.757   1.142
  995SOL     OW 3227   2.800   1.698   0.900
  995SOL    HW1 3228   2.880   1.648   0.916
  995SOL    HW2 3229   2.755   1.650   0.830
  996SOL     OW 3230   2.247   0.695   0.465
  996SOL    HW1 3231   2.273   0.603   0.480
  996SOL    HW2 3232   2.155   0.699   0.490
  997SOL     OW 3233   2.631   0.276   1.758
  997SOL    HW1 3234   2.706   0.216   1.756
  997SOL    HW2 3235   2.589   0.259   1.842
  998SOL     OW 3236   2.737   1.521   1.195
  998SOL    HW1 3237   2.723   1.486   1.107
  998SOL    HW2 3238   2.808   1.468   1.230
  999SOL     OW 3239   3.202   0.590   1.434
  999SOL    HW1 3240   3.235   0.559   1.518
  999SOL    HW2 3241   3.239   0.678   1.425
 1000SOL     OW 3242   2.678   1.394   0.943
 1000SOL    HW1 3243   2.762   1.382   0.899
 1000SOL    HW2 3244   2.614   1.395   0.871
 1001SOL     OW 3245   2.789   0.512   0.905
 1001SOL    HW1 3246   2.764   0.504   0.813
 1001SOL    HW2 3247   2.822   0.425   0.928
 1002SOL     OW 3248   2.423   0.046   0.491
 1002SOL    HW1 3249   2.351   0.042   0.553
 1002SOL    HW2 3250   2.419   0.134   0.455
 1003SOL     OW 3251   2.785   0.257   0.474
 1003SOL    HW1 3252   2.758   0.306   0.396
 1003SOL    HW2 3253   2.878   0.275   0.482
 1004SOL     OW 3254   2.942   0.681   1.462
 1004SOL    HW1 3255   2.873   0.614   1.460
 1004SOL    HW2 3256   3.023   0.631   1.451
 1005SOL     OW 3257   3.080   1.571   0.797
 1005SOL    HW1 3258   3.095   1.636   0.729
 1005SOL    HW2 3259   3.153   1.581   0.857
 1006SOL     OW 3260   2.329   1.154   0.735
 1006SOL    HW1 3261   2.259   1.132   0.797
 1006SOL    HW2 3262   2.289   1.141   0.649
 1007SOL     OW 3263   3.118   1.788   0.611
 1007SOL    HW1 3264   3.174   1.843   0.557
 1007SOL    HW2 3265   3.058   1.849   0.654
 1008SOL     OW 3266   1.943   0.552   1.394
 1008SOL    HW1 3267   2.035   0.553   1.366
 1008SOL    HW2 3268   1.937   0.623   1.458
 1009SOL     OW 3269   2.427   0.224   1.168
 1009SOL    HW1 3270   2.472   0.163   1.227
 1009SOL    HW2 3271   2.336   0.221   1.196
 1010SOL     OW 3272   2.720   0.465   0.646
 1010SOL    HW1 3273   2.679   0.519   0.578
 1010SOL    HW2 3274   2.742   0.383   0.603
 1011SOL     OW 3275   2.862   0.055   0.764
 1011SOL    HW1 3276   2.798   0.048   0.692
 1011SOL    HW2 3277   2.854  -0.028   0.811
 1012SOL     OW 3278   3.301   1.162   0.861
 1012SOL    HW1 3279   3.231   1.099   0.845
 1012SOL    HW2 3280   3.342   1.174   0.776
 1013SOL     OW 3281   3.328   0.606   0.977
 1013SOL    HW1 3282   3.274   0.527   0.980
 1013SOL    HW2 3283   3.386   0.599   1.052
 1014SOL     OW 3284   3.719   0.791   0.357
 1014SOL    HW1 3285   3.756   0.752   0.436
 1014SOL    HW2 3286   3.690   0.717   0.304
 1015SOL     OW 3287   3.527   1.252   0.679
 1015SOL    HW1 3288   3.620   1.255   0.657
 1015SOL    HW2 3289   3.498   1.343   0.674
 1016SOL     OW 3290   2.428   0.274   0.351
 1016SOL    HW1 3291   2.464   0.226   0.277
 1016SOL    HW2 3292   2.401   0.358   0.314
 1017SOL     OW 3293   3.614   1.240   1.573
 1017SOL    HW1 3294   3.702   1.202   1.564
 1017SOL    HW2 3295   3.630   1.330   1.601
 1018SOL     OW 3296   2.920   1.356   1.335
 1018SOL    HW1 3297   2.845   1.323   1.385
 1018SOL    HW2 3298   2.996   1.312   1.375
 1019SOL     OW 3299   3.470   1.625   1.655
 1019SOL    HW1 3300   3.463   1.660   1.566
 1019SOL    HW2 3301   3.553   1.578   1.655
 1020SOL     OW 3302   2.993   1.206   1.106
 1020SOL    HW1 3303   2.931   1.243   1.169
 1020SOL    HW2 3304   2.961   1.236   1.021
 1021SOL     OW 3305   3.488   1.097   1.078
 1021SOL    HW1 3306   3.482   1.160   1.150
 1021SOL    HW2 3307   3.411   1.115   1.024
 1022SOL     OW 3308   2.760   0.185   1.353
 1022SOL    HW1 3309   2.785   0.120   1.288
 1022SOL    HW2 3310   2.841   0.201   1.402
 1023SOL     OW 3311   2.846   1.114   1.723
 1023SOL    HW1 3312   2.754   1.131   1.744
 1023SOL    HW2 3313   2.845   1.037   1.667
 1024SOL     OW 3314   2.280   0.815   1.253
 1024SOL    HW1 3315   2.350   0.825   1.318
 1024SOL    HW2 3316   2.246   0.727   1.267
 1025SOL     OW 3317   3.132   0.385   1.268
 1025SOL    HW1 3318   3.164   0.460   1.317
 1025SOL    HW2 3319   3.041   0.407   1.246
 1026SOL     OW 3320   1.934   1.573   1.354
 1026SOL    HW1 3321   1.904   1.645   1.298
 1026SOL    HW2 3322   2.029   1.575   1.347
 1027SOL     OW 3323   2.205   1.116   0.491
 1027SOL    HW1 3324   2.202   1.182   0.422
 1027SOL    HW2 3325   2.243   1.039   0.448
 1028SOL     OW 3326   2.410   0.536   0.861
 1028SOL    HW1 3327   2.425   0.592   0.785
 1028SOL    HW2 3328   2.478   0.561   0.923
 1029SOL     OW 3329   3.144   1.458   1.147
 1029SOL    HW1 3330   3.200   1.460   1.225
 1029SOL    HW2 3331   3.090   1.380   1.158
 1030SOL     OW 3332   3.462   0.632   0.486
 1030SOL    HW1 3333   3.403   0.670   0.551
 1030SOL    HW2 3334   3.443   0.679   0.405
 1031SOL     OW 3335   2.208   1.528   1.314
 1031SOL    HW1 3336   2.196   1.485   1.229
 1031SOL    HW2 3337   2.303   1.540   1.322
 1032SOL     OW 3338   2.278   0.742   1.602
 1032SOL    HW1 3339   2.338   0.789   1.544
 1032SOL    HW2 3340   2.322   0.659   1.621
 1033SOL     OW 3341   3.465   0.780   1.683
 1033SOL    HW1 3342   3.379   0.820   1.676
 1033SOL    HW2 3343   3.517   0.821   1.614
 1034SOL     OW 3344   2.875   0.096   1.726
 1034SOL    HW1 3345   2.906   0.187   1.728
 1034SOL    HW2 3346   2.949   0.046   1.692
 1035SOL     OW 3347   2.355   0.044   1.756
 1035SOL    HW1 3348   2.358   0.025   1.662
 1035SOL    HW2 3349   2.291   0.115   1.764
 1036SOL     OW 3350   2.444   0.874   1.031
 1036SOL    HW1 3351   2.479   0.963   1.030
 1036SOL    HW2 3352   2.389   0.870   1.109
 1037SOL     OW 3353   3.219   0.857   1.031
 1037SOL    HW1 3354   3.138   0.851   0.981
 1037SOL    HW2 3355   3.259   0.770   1.023
 1038SOL     OW 3356   2.162   0.195   1.244
 1038SOL    HW1 3357   2.124   0.231   1.324
 1038SOL    HW2 3358   2.157   0.100   1.255
 1039SOL     OW 3359   1.907   1.311   1.276
 1039SOL    HW1 3360   1.941   1.256   1.347
 1039SOL    HW2 3361   1.914   1.400   1.310
 1040SOL     OW 3362   2.584   0.629   1.056
 1040SOL    HW1 3363   2.661   0.612   1.002
 1040SOL    HW2 3364   2.559   0.719   1.034
 1041SOL     OW 3365   3.597   0.960   1.853
 1041SOL    HW1 3366   3.552   0.897   1.797
 1041SOL    HW2 3367   3.538   0.974   1.926
 1042SOL     OW 3368   2.219   0.071   0.658
 1042SOL    HW1 3369   2.187   0.161   0.668
 1042SOL    HW2 3370   2.140   0.017   0.664
 1043SOL     OW 3371   3.459   0.362   0.403
 1043SOL    HW1 3372   3.499   0.313   0.475
 1043SOL    HW2 3373   3.460   0.453   0.431
 1044SOL     OW 3374   2.889   0.760   0.962
 1044SOL    HW1 3375   2.886   0.777   1.057
 1044SOL    HW2 3376   2.863   0.668   0.953
 1045SOL     OW 3377   2.842   1.565   1.718
 1045SOL    HW1 3378   2.828   1.610   1.635
 1045SOL    HW2 3379   2.887   1.484   1.694
 1046SOL     OW 3380   3.715   1.504   1.604
 1046SOL    HW1 3381   3.734   1.531   1.515
 1046SOL    HW2 3382   3.797   1.522   1.652
 1047SOL     OW 3383   2.215   0.916   1.808
 1047SOL    HW1 3384   2.297   0.935   1.854
 1047SOL    HW2 3385   2.241   0.853   1.740
 1048SOL     OW 3386   2.927   1.335   0.855
 1048SOL    HW1 3387   2.931   1.263   0.793
 1048SOL    HW2 3388   2.989   1.400   0.821
 1049SOL     OW 3389   2.171   0.809   0.947
 1049SOL    HW1 3390   2.264   0.832   0.940
 1049SOL    HW2 3391   2.171   0.719   0.980
 1050SOL     OW 3392   2.189   0.525   1.013
 1050SOL    HW1 3393   2.156   0.436   0.999
 1050SOL    HW2 3394   2.266   0.531   0.957
 1051SOL     OW 3395   2.998   0.390   1.681
 1051SOL    HW1 3396   2.950   0.459   1.727
 1051SOL    HW2 3397   3.088   0.423   1.676
 1052SOL     OW 3398   3.003   0.224   1.462
 1052SOL    HW1 3399   3.010   0.276   1.541
 1052SOL    HW2 3400   3.067   0.261   1.402
 1053SOL     OW 3401   1.856   1.323   0.190
 1053SOL    HW1 3402   1.761   1.336   0.180
 1053SOL    HW2 3403   1.864   1.233   0.222
 1054SOL     OW 3404   1.953   1.787   0.938
 1054SOL    HW1 3405   1.922   1.708   0.895
 1054SOL    HW2 3406   2.042   1.798   0.907
 1055SOL     OW 3407   2.357   1.575   0.906
 1055SOL    HW1 3408   2.426   1.636   0.930
 1055SOL    HW2 3409   2.401   1.510   0.850
 1056SOL     OW 3410   2.842   0.794   1.229
 1056SOL    HW1 3411   2.900   0.771   1.301
 1056SOL    HW2 3412   2.761   0.748   1.248
 1057SOL     OW 3413   1.900   0.538   1.118
 1057SOL    HW1 3414   1.982   0.539   1.069
 1057SOL    HW2 3415   1.927   0.546   1.210
 1058SOL     OW 3416   2.049   0.522   1.726
 1058SOL    HW1 3417   2.122   0.497   1.669
 1058SOL    HW2 3418   2.008   0.597   1.682
 1059SOL     OW 3419   3.239   0.938   1.659
 1059SOL    HW1 3420   3.261   1.031   1.656
 1059SOL    HW2 3421   3.236   0.911   1.567
 1060SOL     OW 3422   2.664   0.560   0.380
 1060SOL    HW1 3423   2.712   0.538   0.300
 1060SOL    HW2 3424   2.595   0.619   0.350
 1061SOL     OW 3425   3.504   0.600   1.186
 1061SOL    HW1 3426   3.494   0.542   1.261
 1061SOL    HW2 3427   3.590   0.579   1.151
 1062SOL     OW 3428   2.104   1.551   1.727
 1062SOL    HW1 3429   2.082   1.615   1.795
 1062SOL    HW2 3430   2.107   1.467   1.773
 1063SOL     OW 3431   2.544   0.460   1.263
 1063SOL    HW1 3432   2.509   0.379   1.227
 1063SOL    HW2 3433   2.554   0.518   1.187
 1064SOL     OW 3434   2.785   1.680   1.470
 1064SOL    HW1 3435   2.764   1.643   1.384
 1064SOL    HW2 3436   2.784   1.775   1.457
 1065SOL     OW 3437   2.325   0.484   0.221
 1065SOL    HW1 3438   2.379   0.540   0.165
 1065SOL    HW2 3439   2.237   0.522   0.215
 1066SOL     OW 3440   2.007   1.141   1.473
 1066SOL    HW1 3441   2.009   1.090   1.554
 1066SOL    HW2 3442   2.024   1.077   1.404
 1067SOL     OW 3443   3.186   1.046   1.223
 1067SOL    HW1 3444   3.210   0.983   1.156
 1067SOL    HW2 3445   3.118   1.100   1.183
 1068SOL     OW 3446   3.170   0.858   0.340
 1068SOL    HW1 3447   3.113   0.809   0.400
 1068SOL    HW2 3448   3.210   0.790   0.285
 1069SOL     OW 3449   3.637   1.743   1.152
 1069SOL    HW1 3450   3.696   1.768   1.081
 1069SOL    HW2 3451   3.611   1.653   1.130
 1070SOL     OW 3452   3.102   1.733   1.113
 1070SOL    HW1 3453   3.184   1.755   1.068
 1070SOL    HW2 3454   3.109   1.639   1.130
 1071SOL     OW 3455   1.945   1.268   1.012
 1071SOL    HW1 3456   1.930   1.280   1.105
 1071SOL    HW2 3457   1.873   1.212   0.983
 1072SOL     OW 3458   2.540   1.667   1.731
 1072SOL    HW1 3459   2.486   1.745   1.723
 1072SOL    HW2 3460   2.608   1.677   1.663
 1073SOL     OW 3461   3.608   0.156   0.528
 1073SOL    HW1 3462   3.673   0.160   0.457
 1073SOL    HW2 3463   3.631   0.077   0.577
 1074SOL     OW 3464   3.273   1.579   0.495
 1074SOL    HW1 3465   3.285   1.596   0.401
 1074SOL    HW2 3466   3.208   1.644   0.522
 1075SOL     OW 3467   1.998   1.797   1.843
 1075SOL    HW1 3468   1.948   1.731   1.891
 1075SOL    HW2 3469   2.046   1.844   1.911
 1076SOL     OW 3470   3.141   0.929   0.671
 1076SOL    HW1 3471   3.213   0.867   0.677
 1076SOL    HW2 3472   3.174   0.999   0.615
 1077SOL     OW 3473   2.675   1.274   1.429
 1077SOL    HW1 3474   2.646   1.313   1.511
 1077SOL    HW2 3475   2.606   1.295   1.366
 1078SOL     OW 3476   3.486   1.727   1.391
 1078SOL    HW1 3477   3.538   1.733   1.311
 1078SOL    HW2 3478   3.471   1.818   1.417
 1079SOL     OW 3479   3.684   0.169   1.002
 1079SOL    HW1 3480   3.715   0.100   0.943
 1079SOL    HW2 3481   3.599   0.194   0.966
 1080SOL     OW 3482   2.131   0.327   0.723
 1080SOL    HW1 3483   2.047   0.365   0.695
 1080SOL    HW2 3484   2.128   0.331   0.819
 1081SOL     OW 3485   2.684   1.006   1.373
 1081SOL    HW1 3486   2.731   0.998   1.290
 1081SOL    HW2 3487   2.686   1.099   1.393
 1082SOL     OW 3488   1.219   3.819   3.124
 1082SOL    HW1 3489   1.124   3.823   3.111
 1082SOL    HW2 3490   1.255   3.829   3.036
 1083SOL     OW 3491   2.230   1.304   1.493
 1083SOL    HW1 3492   2.218   1.380   1.436
 1083SOL    HW2 3493   2.154   1.249   1.476
 1084SOL     OW 3494   3.471   1.282   1.280
 1084SOL    HW1 3495   3.533   1.273   1.352
 1084SOL    HW2 3496   3.411   1.351   1.309
 1085SOL     OW 3497   2.916   1.108   0.707
 1085SOL    HW1 3498   2.844   1.057   0.745
 1085SOL    HW2 3499   2.979   1.042   0.677
 1086SOL     OW 3500   2.884   0.246   0.964
 1086SOL    HW1 3501   2.878   0.197   0.882
 1086SOL    HW2 3502   2.878   0.179   1.032
 1087SOL     OW 3503   2.454   1.478   0.490
 1087SOL    HW1 3504   2.514   1.434   0.430
 1087SOL    HW2 3505   2.386   1.515   0.434
 1088SOL     OW 3506   3.585   0.398   1.383
 1088SOL    HW1 3507   3.661   0.456   1.378
 1088SOL    HW2 3508   3.612   0.320   1.335
 1089SOL     OW 3509   2.126   1.327   0.297
 1089SOL    HW1 3510   2.045   1.350   0.251
 1089SOL    HW2 3511   2.121   1.375   0.380
 1090SOL     OW 3512   1.975   1.023   1.720
 1090SOL    HW1 3513   1.899   0.999   1.773
 1090SOL    HW2 3514   2.049   0.985   1.766
 1091SOL     OW 3515   2.518   0.223   1.502
 1091SOL    HW1 3516   2.593   0.192   1.451
 1091SOL    HW2 3517   2.555   0.241   1.589
 1092SOL     OW 3518   1.909   0.365   0.036
 1092SOL    HW1 3519   1.856   0.300  -0.011
 1092SOL    HW2 3520   1.989   0.373  -0.016
 1093SOL     OW 3521   3.292   0.859   1.400
 1093SOL    HW1 3522   3.242   0.919   1.345
 1093SOL    HW2 3523   3.380   0.861   1.364
 1094SOL     OW 3524   1.938   0.203   0.323
 1094SOL    HW1 3525   1.936   0.256   0.243
 1094SOL    HW2 3526   2.002   0.134   0.306
 1095SOL     OW 3527   2.481   0.830   1.434
 1095SOL    HW1 3528   2.538   0.906   1.418
 1095SOL    HW2 3529   2.542   0.756   1.441
 1096SOL     OW 3530   3.344   1.779   0.981
 1096SOL    HW1 3531   3.369   1.839   0.911
 1096SOL    HW2 3532   3.427   1.754   1.022
 1097SOL     OW 3533   2.577   0.564   1.704
 1097SOL    HW1 3534   2.619   0.626   1.763
 1097SOL    HW2 3535   2.605   0.478   1.736
 1098SOL     OW 3536   3.334   1.199   1.631
 1098SOL    HW1 3537   3.323   1.213   1.725
 1098SOL    HW2 3538   3.427   1.215   1.616
 1099SOL     OW 3539   2.240   1.740   1.565
 1099SOL    HW1 3540   2.155   1.782   1.551
 1099SOL    HW2 3541   2.218   1.656   1.606
 1100SOL     OW 3542   3.532   0.881   1.255
 1100SOL    HW1 3543   3.523   0.796   1.212
 1100SOL    HW2 3544   3.520   0.945   1.185
 1101SOL     OW 3545   3.050   0.301   0.487
 1101SOL    HW1 3546   3.123   0.247   0.457
 1101SOL    HW2 3547   3.090   0.369   0.540
 1102SOL     OW 3548   2.446   0.732   0.667
 1102SOL    HW1 3549   2.488   0.818   0.659
 1102SOL    HW2 3550   2.384   0.730   0.594
 1103SOL     OW 3551   3.613   0.355   1.650
 1103SOL    HW1 3552   3.597   0.373   1.558
 1103SOL    HW2 3553   3.545   0.293   1.676
 1104SOL     OW 3554   3.610   0.933   1.512
 1104SOL    HW1 3555   3.603   1.028   1.525
 1104SOL    HW2 3556   3.593   0.921   1.418
 1105SOL     OW 3557   2.523   1.791   0.946
 1105SOL    HW1 3558   2.507   1.882   0.920
 1105SOL    HW2 3559   2.617   1.780   0.936
 1106SOL     OW 3560   2.733   0.969   0.859
 1106SOL    HW1 3561   2.782   0.896   0.897
 1106SOL    HW2 3562   2.698   1.016   0.935
 1107SOL     OW 3563   3.711   1.557   0.845
 1107SOL    HW1 3564   3.636   1.538   0.788
 1107SOL    HW2 3565   3.710   1.487   0.910
 1108SOL     OW 3566   2.087   1.303   1.856
 1108SOL    HW1 3567   2.020   1.241   1.826
 1108SOL    HW2 3568   2.068   1.315   1.949
 1109SOL     OW 3569   1.948   1.234   0.664
 1109SOL    HW1 3570   1.958   1.185   0.746
 1109SOL    HW2 3571   2.014   1.197   0.606
 1110SOL     OW 3572   2.543   1.404   1.628
 1110SOL    HW1 3573   2.464   1.360   1.660
 1110SOL    HW2 3574   2.539   1.492   1.665
 1111SOL     OW 3575   3.682   0.167   1.270
 1111SOL    HW1 3576   3.620   0.094   1.272
 1111SOL    HW2 3577   3.697   0.183   1.177
 1112SOL     OW 3578   2.288   0.438   0.530
 1112SOL    HW1 3579   2.338   0.369   0.485
 1112SOL    HW2 3580   2.245   0.393   0.603
 1113SOL     OW 3581   3.559   1.490   1.098
 1113SOL    HW1 3582   3.481   1.467   1.049
 1113SOL    HW2 3583   3.569   1.418   1.161
 1114SOL     OW 3584   2.192   0.555   1.292
 1114SOL    HW1 3585   2.249   0.502   1.348
 1114SOL    HW2 3586   2.215   0.529   1.203
 1115SOL     OW 3587   2.682   1.579   0.684
 1115SOL    HW1 3588   2.679   1.612   0.594
 1115SOL    HW2 3589   2.608   1.519   0.690
 1116SOL     OW 3590   3.296   0.222   1.120
 1116SOL    HW1 3591   3.333   0.149   1.171
 1116SOL    HW2 3592   3.246   0.272   1.184
 1117SOL     OW 3593   2.873   4.425   1.139
 1117SOL    HW1 3594   2.822   4.346   1.120
 1117SOL    HW2 3595   2.960   4.392   1.164
 1118SOL     OW 3596   2.634   1.329   0.335
 1118SOL    HW1 3597   2.602   1.243   0.308
 1118SOL    HW2 3598   2.710   1.310   0.390
 1119SOL     OW 3599   2.481   1.557   1.285
 1119SOL    HW1 3600   2.484   1.639   1.334
 1119SOL    HW2 3601   2.569   1.548   1.248
 1120SOL     OW 3602   3.169   0.464   0.684
 1120SOL    HW1 3603   3.115   0.543   0.686
 1120SOL    HW2 3604   3.158   0.425   0.771
 1121SOL     OW 3605   3.452   0.231   0.884
 1121SOL    HW1 3606   3.388   0.240   0.954
 1121SOL    HW2 3607   3.449   0.315   0.837
 1122SOL     OW 3608   1.892   1.076   0.311
 1122SOL    HW1 3609   1.985   1.081   0.288
 1122SOL    HW2 3610   1.877   0.983   0.330
 1123SOL     OW 3611   2.694   1.633   0.401
 1123SOL    HW1 3612   2.650   1.633   0.316
 1123SOL    HW2 3613   2.685   1.723   0.432
 1124SOL     OW 3614   2.088   0.626   1.986
 1124SOL    HW1 3615   2.000   0.621   2.023
 1124SOL    HW2 3616   2.077   0.600   1.894
 1125SOL     OW 3617   2.073   0.280   2.847
 1125SOL    HW1 3618   2.105   0.263   2.935
 1125SOL    HW2 3619   1.981   0.253   2.850
 1126SOL     OW 3620   1.866   0.375   2.514
 1126SOL    HW1 3621   1.782   0.407   2.546
 1126SOL    HW2 3622   1.844   0.316   2.442
 1127SOL     OW 3623   2.427   1.290   3.017
 1127SOL    HW1 3624   2.340   1.313   2.984
 1127SOL    HW2 3625   2.454   1.366   3.069
 1128SOL     OW 3626   3.425   1.513   2.569
 1128SOL    HW1 3627   3.382   1.491   2.651
 1128SOL    HW2 3628   3.354   1.516   2.505
 1129SOL     OW 3629   2.994   0.696   2.565
 1129SOL    HW1 3630   3.042   0.778   2.551
 1129SOL    HW2 3631   2.940   0.713   2.643
 1130SOL     OW 3632   3.627   0.604   2.092
 1130SOL    HW1 3633   3.608   0.598   1.998
 1130SOL    HW2 3634   3.592   0.523   2.129
 1131SOL     OW 3635   2.639   1.150   2.905
 1131SOL    HW1 3636   2.560   1.174   2.954
 1131SOL    HW2 3637   2.662   1.229   2.856
 1132SOL     OW 3638   2.548   1.002   2.508
 1132SOL    HW1 3639   2.612   0.990   2.578
 1132SOL    HW2 3640   2.478   1.054   2.547
 1133SOL     OW 3641   2.201   1.416   2.922
 1133SOL    HW1 3642   2.121   1.385   2.879
 1133SOL    HW2 3643   2.241   1.474   2.857
 1134SOL     OW 3644   3.476   0.459   2.598
 1134SOL    HW1 3645   3.400   0.475   2.542
 1134SOL    HW2 3646   3.499   0.545   2.634
 1135SOL     OW 3647   2.081   1.714   2.334
 1135SOL    HW1 3648   2.102   1.791   2.387
 1135SOL    HW2 3649   2.155   1.707   2.273
 1136SOL     OW 3650   2.093   1.442   2.397
 1136SOL    HW1 3651   2.075   1.536   2.400
 1136SOL    HW2 3652   2.033   1.404   2.461
 1137SOL     OW 3653   2.118   1.092   2.752
 1137SOL    HW1 3654   2.118   1.006   2.792
 1137SOL    HW2 3655   2.064   1.146   2.809
 1138SOL     OW 3656   2.446   0.982   1.997
 1138SOL    HW1 3657   2.492   1.030   1.928
 1138SOL    HW2 3658   2.486   1.013   2.079
 1139SOL     OW 3659   1.979   0.656   2.422
 1139SOL    HW1 3660   1.949   0.567   2.443
 1139SOL    HW2 3661   1.970   0.705   2.504
 1140SOL     OW 3662   3.704   1.759   2.198
 1140SOL    HW1 3663   3.770   1.730   2.261
 1140SOL    HW2 3664   3.727   1.850   2.178
 1141SOL     OW 3665   1.895   1.594   1.985
 1141SOL    HW1 3666   1.877   1.502   2.005
 1141SOL    HW2 3667   1.871   1.641   2.065
 1142SOL     OW 3668   3.548   0.915   2.502
 1142SOL    HW1 3669   3.634   0.876   2.486
 1142SOL    HW2 3670   3.530   0.966   2.423
 1143SOL     OW 3671   3.508   1.105   2.292
 1143SOL    HW1 3672   3.593   1.111   2.249
 1143SOL    HW2 3673   3.513   1.168   2.364
 1144SOL     OW 3674   2.475   1.387   2.594
 1144SOL    HW1 3675   2.428   1.304   2.604
 1144SOL    HW2 3676   2.458   1.413   2.504
 1145SOL     OW 3677   0.984   3.436   0.134
 1145SOL    HW1 3678   0.983   3.343   0.112
 1145SOL    HW2 3679   0.943   3.441   0.220
 1146SOL     OW 3680   2.676   0.034   2.423
 1146SOL    HW1 3681   2.708   0.119   2.393
 1146SOL    HW2 3682   2.582   0.036   2.405
 1147SOL     OW 3683   2.048   0.962   3.120
 1147SOL    HW1 3684   2.121   0.911   3.085
 1147SOL    HW2 3685   1.971   0.922   3.079
 1148SOL     OW 3686   3.394   0.994   2.061
 1148SOL    HW1 3687   3.324   0.937   2.092
 1148SOL    HW2 3688   3.434   1.028   2.140
 1149SOL     OW 3689   3.325   1.419   2.813
 1149SOL    HW1 3690   3.259   1.429   2.881
 1149SOL    HW2 3691   3.315   1.329   2.782
 1150SOL     OW 3692   3.516   1.744   2.440
 1150SOL    HW1 3693   3.501   1.712   2.351
 1150SOL    HW2 3694   3.495   1.669   2.496
 1151SOL     OW 3695   2.456   0.722   2.129
 1151SOL    HW1 3696   2.461   0.804   2.079
 1151SOL    HW2 3697   2.391   0.739   2.197
 1152SOL     OW 3698   3.160   0.333   2.822
 1152SOL    HW1 3699   3.067   0.321   2.808
 1152SOL    HW2 3700   3.182   0.274   2.894
 1153SOL     OW 3701   3.442   1.670   2.171
 1153SOL    HW1 3702   3.532   1.700   2.164
 1153SOL    HW2 3703   3.415   1.653   2.081
 1154SOL     OW 3704   2.860   0.421   3.077
 1154SOL    HW1 3705   2.781   0.449   3.122
 1154SOL    HW2 3706   2.831   0.352   3.018
 1155SOL     OW 3707   2.912   0.699   2.289
 1155SOL    HW1 3708   2.928   0.689   2.383
 1155SOL    HW2 3709   2.830   0.653   2.274
 1156SOL     OW 3710   1.950   0.820   2.639
 1156SOL    HW1 3711   2.032   0.815   2.689
 1156SOL    HW2 3712   1.906   0.898   2.673
 1157SOL     OW 3713   2.724   0.350   2.069
 1157SOL    HW1 3714   2.780   0.406   2.015
 1157SOL    HW2 3715   2.748   0.261   2.045
 1158SOL     OW 3716   3.239   1.141   2.402
 1158SOL    HW1 3717   3.318   1.128   2.350
 1158SOL    HW2 3718   3.187   1.203   2.351
 1159SOL     OW 3719   2.452   0.201   2.776
 1159SOL    HW1 3720   2.379   0.221   2.834
 1159SOL    HW2 3721   2.443   0.264   2.704
 1160SOL     OW 3722   2.868   1.446   2.335
 1160SOL    HW1 3723   2.831   1.518   2.284
 1160SOL    HW2 3724   2.843   1.466   2.426
 1161SOL     OW 3725   2.217   1.811   2.726
 1161SOL    HW1 3726   2.260   1.726   2.733
 1161SOL    HW2 3727   2.288   1.875   2.737
 1162SOL     OW 3728   3.680   1.056   2.713
 1162SOL    HW1 3729   3.615   1.034   2.646
 1162SOL    HW2 3730   3.628   1.075   2.791
 1163SOL     OW 3731   2.181   0.958   2.113
 1163SOL    HW1 3732   2.263   0.976   2.067
 1163SOL    HW2 3733   2.151   0.876   2.074
 1164SOL     OW 3734   3.340   0.746   2.593
 1164SOL    HW1 3735   3.338   0.702   2.678
 1164SOL    HW2 3736   3.418   0.801   2.596
 1165SOL     OW 3737   2.985   1.777   2.094
 1165SOL    HW1 3738   2.910   1.736   2.138
 1165SOL    HW2 3739   3.008   1.717   2.024
 1166SOL     OW 3740   4.246   2.466   0.263
 1166SOL    HW1 3741   4.188   2.530   0.222
 1166SOL    HW2 3742   4.214   2.461   0.354
 1167SOL     OW 3743   3.490   1.381   1.952
 1167SOL    HW1 3744   3.449   1.465   1.934
 1167SOL    HW2 3745   3.422   1.317   1.931
 1168SOL     OW 3746   2.327   1.737   2.182
 1168SOL    HW1 3747   2.370   1.794   2.246
 1168SOL    HW2 3748   2.398   1.705   2.127
 1169SOL     OW 3749   3.251   0.146   2.263
 1169SOL    HW1 3750   3.240   0.100   2.180
 1169SOL    HW2 3751   3.346   0.150   2.275
 1170SOL     OW 3752   2.806   1.696   2.764
 1170SOL    HW1 3753   2.886   1.644   2.771
 1170SOL    HW2 3754   2.753   1.649   2.699
 1171SOL     OW 3755   2.255   0.697   2.337
 1171SOL    HW1 3756   2.277   0.605   2.347
 1171SOL    HW2 3757   2.161   0.702   2.354
 1172SOL     OW 3758   2.503   0.128   1.971
 1172SOL    HW1 3759   2.552   0.056   2.011
 1172SOL    HW2 3760   2.452   0.086   1.901
 1173SOL     OW 3761   2.675   1.389   2.789
 1173SOL    HW1 3762   2.760   1.386   2.745
 1173SOL    HW2 3763   2.612   1.392   2.717
 1174SOL     OW 3764   2.796   0.513   2.761
 1174SOL    HW1 3765   2.770   0.501   2.670
 1174SOL    HW2 3766   2.825   0.427   2.790
 1175SOL     OW 3767   2.427   0.054   2.338
 1175SOL    HW1 3768   2.357   0.043   2.402
 1175SOL    HW2 3769   2.404   0.133   2.290
 1176SOL     OW 3770   3.291   1.199   1.903
 1176SOL    HW1 3771   3.321   1.123   1.953
 1176SOL    HW2 3772   3.205   1.219   1.940
 1177SOL     OW 3773   2.156   0.047   2.045
 1177SOL    HW1 3774   2.219   0.116   2.026
 1177SOL    HW2 3775   2.201  -0.011   2.106
 1178SOL     OW 3776   2.795   0.261   2.325
 1178SOL    HW1 3777   2.763   0.296   2.243
 1178SOL    HW2 3778   2.890   0.278   2.323
 1179SOL     OW 3779   3.086   1.581   2.663
 1179SOL    HW1 3780   3.097   1.640   2.589
 1179SOL    HW2 3781   3.166   1.589   2.713
 1180SOL     OW 3782   2.331   1.150   2.594
 1180SOL    HW1 3783   2.262   1.131   2.658
 1180SOL    HW2 3784   2.290   1.134   2.509
 1181SOL     OW 3785   3.129   1.794   2.471
 1181SOL    HW1 3786   3.176   1.854   2.413
 1181SOL    HW2 3787   3.062   1.848   2.512
 1182SOL     OW 3788   2.896   0.559   1.874
 1182SOL    HW1 3789   2.843   0.638   1.859
 1182SOL    HW2 3790   2.949   0.580   1.950
 1183SOL     OW 3791   4.141   2.749   0.154
 1183SOL    HW1 3792   4.232   2.748   0.128
 1183SOL    HW2 3793   4.128   2.836   0.193
 1184SOL     OW 3794   2.727   0.466   2.503
 1184SOL    HW1 3795   2.679   0.519   2.439
 1184SOL    HW2 3796   2.751   0.387   2.455
 1185SOL     OW 3797   2.864   0.054   2.622
 1185SOL    HW1 3798   2.794   0.045   2.558
 1185SOL    HW2 3799   2.857  -0.024   2.677
 1186SOL     OW 3800   3.284   1.169   2.712
 1186SOL    HW1 3801   3.224   1.094   2.709
 1186SOL    HW2 3802   3.318   1.176   2.623
 1187SOL     OW 3803   3.331   0.598   2.849
 1187SOL    HW1 3804   3.279   0.517   2.843
 1187SOL    HW2 3805   3.401   0.577   2.910
 1188SOL     OW 3806   3.710   0.815   2.242
 1188SOL    HW1 3807   3.763   0.764   2.302
 1188SOL    HW2 3808   3.679   0.752   2.177
 1189SOL     OW 3809   2.352   1.419   2.018
 1189SOL    HW1 3810   2.277   1.390   2.069
 1189SOL    HW2 3811   2.341   1.376   1.933
 1190SOL     OW 3812   3.533   1.265   2.506
 1190SOL    HW1 3813   3.627   1.267   2.522
 1190SOL    HW2 3814   3.503   1.354   2.528
 1191SOL     OW 3815   3.258   0.572   1.937
 1191SOL    HW1 3816   3.194   0.556   2.007
 1191SOL    HW2 3817   3.335   0.522   1.963
 1192SOL     OW 3818   2.380   0.266   2.175
 1192SOL    HW1 3819   2.436   0.223   2.110
 1192SOL    HW2 3820   2.360   0.351   2.135
 1193SOL     OW 3821   2.951   1.231   2.970
 1193SOL    HW1 3822   2.864   1.192   2.979
 1193SOL    HW2 3823   2.956   1.259   2.879
 1194SOL     OW 3824   3.503   1.110   2.905
 1194SOL    HW1 3825   3.490   1.143   2.994
 1194SOL    HW2 3826   3.416   1.087   2.874
 1195SOL     OW 3827   2.571   1.062   2.233
 1195SOL    HW1 3828   2.556   1.044   2.326
 1195SOL    HW2 3829   2.647   1.008   2.209
 1196SOL     OW 3830   0.075   2.994  -0.004
 1196SOL    HW1 3831   0.147   3.019   0.053
 1196SOL    HW2 3832   0.044   2.911   0.031
 1197SOL     OW 3833   4.132   3.757   0.089
 1197SOL    HW1 3834   4.101   3.846   0.071
 1197SOL    HW2 3835   4.228   3.764   0.080
 1198SOL     OW 3836   2.210   1.110   2.352
 1198SOL    HW1 3837   2.214   1.184   2.290
 1198SOL    HW2 3838   2.207   1.032   2.297
 1199SOL     OW 3839   2.406   0.536   2.720
 1199SOL    HW1 3840   2.422   0.592   2.644
 1199SOL    HW2 3841   2.474   0.560   2.783
 1200SOL     OW 3842   3.110   1.348   2.252
 1200SOL    HW1 3843   3.166   1.420   2.282
 1200SOL    HW2 3844   3.023   1.371   2.285
 1201SOL     OW 3845   3.141   1.431   3.017
 1201SOL    HW1 3846   3.151   1.419   3.112
 1201SOL    HW2 3847   3.077   1.365   2.991
 1202SOL     OW 3848   3.445   0.623   2.346
 1202SOL    HW1 3849   3.396   0.681   2.404
 1202SOL    HW2 3850   3.487   0.681   2.283
 1203SOL     OW 3851   0.004   3.733   0.059
 1203SOL    HW1 3852   0.010   3.677  -0.018
 1203SOL    HW2 3853   0.094   3.740   0.091
 1204SOL     OW 3854   2.443   0.874   2.883
 1204SOL    HW1 3855   2.480   0.962   2.884
 1204SOL    HW2 3856   2.391   0.869   2.964
 1205SOL     OW 3857   3.228   0.850   2.896
 1205SOL    HW1 3858   3.147   0.854   2.845
 1205SOL    HW2 3859   3.265   0.764   2.877
 1206SOL     OW 3860   3.065   0.535   2.127
 1206SOL    HW1 3861   3.070   0.454   2.178
 1206SOL    HW2 3862   3.022   0.597   2.186
 1207SOL     OW 3863   4.344   2.436  -0.003
 1207SOL    HW1 3864   4.305   2.459   0.081
 1207SOL    HW2 3865   4.345   2.340  -0.004
 1208SOL     OW 3866   4.087   3.498   0.044
 1208SOL    HW1 3867   4.162   3.454   0.085
 1208SOL    HW2 3868   4.102   3.591   0.060
 1209SOL     OW 3869   2.582   0.630   2.907
 1209SOL    HW1 3870   2.660   0.616   2.852
 1209SOL    HW2 3871   2.556   0.720   2.888
 1210SOL     OW 3872   2.227   0.070   2.520
 1210SOL    HW1 3873   2.183   0.155   2.520
 1210SOL    HW2 3874   2.157   0.006   2.508
 1211SOL     OW 3875   3.479   0.378   2.221
 1211SOL    HW1 3876   3.517   0.314   2.282
 1211SOL    HW2 3877   3.455   0.452   2.277
 1212SOL     OW 3878   2.881   0.759   2.831
 1212SOL    HW1 3879   2.915   0.759   2.920
 1212SOL    HW2 3880   2.856   0.668   2.814
 1213SOL     OW 3881   3.393   0.288   1.972
 1213SOL    HW1 3882   3.340   0.210   1.986
 1213SOL    HW2 3883   3.425   0.312   2.058
 1214SOL     OW 3884   3.154   0.826   1.894
 1214SOL    HW1 3885   3.198   0.741   1.898
 1214SOL    HW2 3886   3.185   0.865   1.812
 1215SOL     OW 3887   2.936   1.337   2.713
 1215SOL    HW1 3888   2.935   1.264   2.651
 1215SOL    HW2 3889   2.994   1.402   2.672
 1216SOL     OW 3890   2.171   0.812   2.808
 1216SOL    HW1 3891   2.264   0.835   2.801
 1216SOL    HW2 3892   2.170   0.725   2.847
 1217SOL     OW 3893   2.190   0.523   2.878
 1217SOL    HW1 3894   2.152   0.438   2.855
 1217SOL    HW2 3895   2.266   0.532   2.821
 1218SOL     OW 3896   1.867   1.321   2.057
 1218SOL    HW1 3897   1.780   1.335   2.019
 1218SOL    HW2 3898   1.864   1.231   2.091
 1219SOL     OW 3899   1.951   1.788   2.795
 1219SOL    HW1 3900   1.923   1.707   2.751
 1219SOL    HW2 3901   2.043   1.798   2.769
 1220SOL     OW 3902   2.359   1.577   2.764
 1220SOL    HW1 3903   2.429   1.637   2.789
 1220SOL    HW2 3904   2.402   1.511   2.710
 1221SOL     OW 3905   1.900   0.548   2.978
 1221SOL    HW1 3906   1.984   0.539   2.932
 1221SOL    HW2 3907   1.922   0.537   3.071
 1222SOL     OW 3908   2.675   0.574   2.224
 1222SOL    HW1 3909   2.672   0.496   2.169
 1222SOL    HW2 3910   2.602   0.628   2.193
 1223SOL     OW 3911   2.572   0.475   3.130
 1223SOL    HW1 3912   2.523   0.396   3.108
 1223SOL    HW2 3913   2.569   0.528   3.050
 1224SOL     OW 3914   2.325   0.495   2.042
 1224SOL    HW1 3915   2.384   0.567   2.066
 1224SOL    HW2 3916   2.239   0.538   2.033
 1225SOL     OW 3917   3.173   0.858   2.169
 1225SOL    HW1 3918   3.098   0.825   2.218
 1225SOL    HW2 3919   3.150   0.843   2.077
 1226SOL     OW 3920   3.588   1.752   2.960
 1226SOL    HW1 3921   3.674   1.775   2.925
 1226SOL    HW2 3922   3.591   1.657   2.969
 1227SOL     OW 3923   3.112   1.718   2.983
 1227SOL    HW1 3924   3.188   1.755   2.937
 1227SOL    HW2 3925   3.116   1.624   2.965
 1228SOL     OW 3926   1.943   1.267   2.879
 1228SOL    HW1 3927   1.926   1.274   2.972
 1228SOL    HW2 3928   1.874   1.211   2.845
 1229SOL     OW 3929   3.602   0.171   2.365
 1229SOL    HW1 3930   3.665   0.173   2.293
 1229SOL    HW2 3931   3.624   0.091   2.414
 1230SOL     OW 3932   3.253   1.567   2.349
 1230SOL    HW1 3933   3.313   1.598   2.281
 1230SOL    HW2 3934   3.204   1.646   2.375
 1231SOL     OW 3935   3.139   0.927   2.536
 1231SOL    HW1 3936   3.212   0.866   2.542
 1231SOL    HW2 3937   3.172   0.998   2.481
 1232SOL     OW 3938   2.533   1.621   2.017
 1232SOL    HW1 3939   2.544   1.634   1.923
 1232SOL    HW2 3940   2.477   1.543   2.025
 1233SOL     OW 3941   3.684   0.165   2.886
 1233SOL    HW1 3942   3.708   0.086   2.837
 1233SOL    HW2 3943   3.600   0.190   2.850
 1234SOL     OW 3944   2.132   0.334   2.579
 1234SOL    HW1 3945   2.046   0.366   2.550
 1234SOL    HW2 3946   2.124   0.329   2.675
 1235SOL     OW 3947   3.069   1.606   1.894
 1235SOL    HW1 3948   3.059   1.514   1.920
 1235SOL    HW2 3949   3.005   1.618   1.824
 1236SOL     OW 3950   2.779   0.912   2.153
 1236SOL    HW1 3951   2.839   0.943   2.086
 1236SOL    HW2 3952   2.826   0.842   2.198
 1237SOL     OW 3953   3.353   1.626   1.905
 1237SOL    HW1 3954   3.259   1.619   1.890
 1237SOL    HW2 3955   3.391   1.632   1.817
 1238SOL     OW 3956   2.914   1.108   2.570
 1238SOL    HW1 3957   2.843   1.056   2.606
 1238SOL    HW2 3958   2.977   1.043   2.537
 1239SOL     OW 3959   2.889   0.250   2.813
 1239SOL    HW1 3960   2.879   0.200   2.733
 1239SOL    HW2 3961   2.885   0.185   2.883
 1240SOL     OW 3962   2.466   1.490   2.342
 1240SOL    HW1 3963   2.511   1.439   2.274
 1240SOL    HW2 3964   2.394   1.533   2.295
 1241SOL     OW 3965   2.122   1.345   2.151
 1241SOL    HW1 3966   2.029   1.342   2.128
 1241SOL    HW2 3967   2.123   1.382   2.239
 1242SOL     OW 3968   1.939   0.334   1.898
 1242SOL    HW1 3969   1.846   0.323   1.876
 1242SOL    HW2 3970   1.968   0.408   1.845
 1243SOL     OW 3971   1.937   0.197   2.180
 1243SOL    HW1 3972   1.938   0.249   2.100
 1243SOL    HW2 3973   1.994   0.122   2.161
 1244SOL     OW 3974   3.041   1.339   1.979
 1244SOL    HW1 3975   2.951   1.307   1.981
 1244SOL    HW2 3976   3.068   1.338   2.071
 1245SOL     OW 3977   3.343   1.775   2.839
 1245SOL    HW1 3978   3.369   1.830   2.765
 1245SOL    HW2 3979   3.422   1.768   2.893
 1246SOL     OW 3980   3.065   0.331   2.324
 1246SOL    HW1 3981   3.127   0.261   2.304
 1246SOL    HW2 3982   3.103   0.373   2.402
 1247SOL     OW 3983   2.451   0.737   2.531
 1247SOL    HW1 3984   2.490   0.823   2.516
 1247SOL    HW2 3985   2.384   0.729   2.463
 1248SOL     OW 3986   2.724   1.367   1.897
 1248SOL    HW1 3987   2.686   1.397   1.980
 1248SOL    HW2 3988   2.743   1.447   1.849
 1249SOL     OW 3989   2.525   1.791   2.807
 1249SOL    HW1 3990   2.501   1.880   2.783
 1249SOL    HW2 3991   2.620   1.788   2.797
 1250SOL     OW 3992   2.728   0.967   2.717
 1250SOL    HW1 3993   2.774   0.893   2.758
 1250SOL    HW2 3994   2.697   1.020   2.790
 1251SOL     OW 3995   2.941   0.988   1.951
 1251SOL    HW1 3996   2.919   1.038   1.872
 1251SOL    HW2 3997   3.016   0.934   1.925
 1252SOL     OW 3998   3.715   1.553   2.707
 1252SOL    HW1 3999   3.639   1.547   2.649
 1252SOL    HW2 4000   3.688   1.508   2.787
 1253SOL     OW 4001   1.947   1.233   2.528
 1253SOL    HW1 4002   1.953   1.185   2.610
 1253SOL    HW2 4003   2.014   1.194   2.472
 1254SOL     OW 4004   2.298   0.437   2.384
 1254SOL    HW1 4005   2.324   0.365   2.327
 1254SOL    HW2 4006   2.250   0.395   2.456
 1255SOL     OW 4007   3.562   1.477   2.945
 1255SOL    HW1 4008   3.483   1.462   2.894
 1255SOL    HW2 4009   3.552   1.422   3.022
 1256SOL     OW 4010  -0.006   2.736   0.047
 1256SOL    HW1 4011   0.060   2.677   0.083
 1256SOL    HW2 4012   0.003   2.726  -0.048
 1257SOL     OW 4013   2.689   1.580   2.540
 1257SOL    HW1 4014   2.675   1.635   2.463
 1257SOL    HW2 4015   2.613   1.522   2.542
 1258SOL     OW 4016   2.877   0.046   2.990
 1258SOL    HW1 4017   2.798  -0.007   3.003
 1258SOL    HW2 4018   2.944   0.001   3.040
 1259SOL     OW 4019   2.633   1.333   2.179
 1259SOL    HW1 4020   2.602   1.243   2.183
 1259SOL    HW2 4021   2.717   1.332   2.226
 1260SOL     OW 4022   3.212   0.055   1.991
 1260SOL    HW1 4023   3.204   0.034   1.897
 1260SOL    HW2 4024   3.167  -0.017   2.035
 1261SOL     OW 4025   3.163   0.460   2.553
 1261SOL    HW1 4026   3.106   0.537   2.559
 1261SOL    HW2 4027   3.157   0.420   2.640
 1262SOL     OW 4028   3.456   0.235   2.746
 1262SOL    HW1 4029   3.368   0.243   2.785
 1262SOL    HW2 4030   3.466   0.314   2.694
 1263SOL     OW 4031   1.906   1.070   2.168
 1263SOL    HW1 4032   1.999   1.062   2.150
 1263SOL    HW2 4033   1.877   0.982   2.191
 1264SOL     OW 4034   2.747   1.654   2.204
 1264SOL    HW1 4035   2.674   1.637   2.144
 1264SOL    HW2 4036   2.717   1.729   2.256
 1265SOL     OW 4037   2.086   2.486   0.127
 1265SOL    HW1 4038   2.002   2.450   0.158
 1265SOL    HW2 4039   2.087   2.467   0.033
 1266SOL     OW 4040   2.087   2.145   0.992
 1266SOL    HW1 4041   2.115   2.109   1.076
 1266SOL    HW2 4042   1.997   2.112   0.981
 1267SOL     OW 4043   1.864   2.243   0.638
 1267SOL    HW1 4044   1.783   2.271   0.680
 1267SOL    HW2 4045   1.841   2.163   0.591
 1268SOL     OW 4046   2.411   3.110   1.148
 1268SOL    HW1 4047   2.325   3.142   1.121
 1268SOL    HW2 4048   2.451   3.183   1.194
 1269SOL     OW 4049   3.439   3.377   0.703
 1269SOL    HW1 4050   3.395   3.352   0.784
 1269SOL    HW2 4051   3.368   3.387   0.639
 1270SOL     OW 4052   2.991   2.559   0.710
 1270SOL    HW1 4053   3.040   2.640   0.697
 1270SOL    HW2 4054   3.001   2.540   0.804
 1271SOL     OW 4055   3.626   2.459   0.221
 1271SOL    HW1 4056   3.563   2.491   0.157
 1271SOL    HW2 4057   3.575   2.404   0.281
 1272SOL     OW 4058   2.738   2.641   1.828
 1272SOL    HW1 4059   2.710   2.699   1.899
 1272SOL    HW2 4060   2.732   2.694   1.749
 1273SOL     OW 4061   2.552   2.868   0.665
 1273SOL    HW1 4062   2.613   2.885   0.737
 1273SOL    HW2 4063   2.473   2.917   0.689
 1274SOL     OW 4064   2.193   3.282   1.053
 1274SOL    HW1 4065   2.116   3.246   1.011
 1274SOL    HW2 4066   2.236   3.334   0.985
 1275SOL     OW 4067   2.311   2.261   1.487
 1275SOL    HW1 4068   2.386   2.201   1.492
 1275SOL    HW2 4069   2.235   2.204   1.501
 1276SOL     OW 4070   3.474   2.315   0.737
 1276SOL    HW1 4071   3.391   2.331   0.693
 1276SOL    HW2 4072   3.471   2.371   0.815
 1277SOL     OW 4073   2.074   3.580   0.475
 1277SOL    HW1 4074   2.098   3.657   0.527
 1277SOL    HW2 4075   2.151   3.564   0.420
 1278SOL     OW 4076   2.094   3.312   0.555
 1278SOL    HW1 4077   2.068   3.404   0.549
 1278SOL    HW2 4078   2.025   3.271   0.609
 1279SOL     OW 4079   2.124   2.953   0.898
 1279SOL    HW1 4080   2.115   2.865   0.936
 1279SOL    HW2 4081   2.062   3.007   0.946
 1280SOL     OW 4082   3.455   1.986   1.466
 1280SOL    HW1 4083   3.472   2.068   1.419
 1280SOL    HW2 4084   3.443   2.013   1.557
 1281SOL     OW 4085   1.975   2.511   0.563
 1281SOL    HW1 4086   1.940   2.424   0.583
 1281SOL    HW2 4087   1.964   2.561   0.644
 1282SOL     OW 4088   3.713   3.652   0.360
 1282SOL    HW1 4089   3.776   3.604   0.413
 1282SOL    HW2 4090   3.766   3.713   0.309
 1283SOL     OW 4091   1.901   3.459   0.122
 1283SOL    HW1 4092   1.886   3.367   0.142
 1283SOL    HW2 4093   1.867   3.506   0.198
 1284SOL     OW 4094   3.554   2.756   0.624
 1284SOL    HW1 4095   3.648   2.746   0.609
 1284SOL    HW2 4096   3.527   2.827   0.565
 1285SOL     OW 4097   3.504   2.965   0.451
 1285SOL    HW1 4098   3.575   2.977   0.388
 1285SOL    HW2 4099   3.518   3.033   0.517
 1286SOL     OW 4100   1.985   2.605   1.584
 1286SOL    HW1 4101   2.076   2.632   1.593
 1286SOL    HW2 4102   1.934   2.685   1.595
 1287SOL     OW 4103   2.440   3.255   0.732
 1287SOL    HW1 4104   2.402   3.166   0.732
 1287SOL    HW2 4105   2.436   3.282   0.641
 1288SOL     OW 4106   2.679   1.870   0.528
 1288SOL    HW1 4107   2.714   1.955   0.502
 1288SOL    HW2 4108   2.584   1.882   0.532
 1289SOL     OW 4109   2.055   2.826   1.269
 1289SOL    HW1 4110   2.139   2.784   1.252
 1289SOL    HW2 4111   1.991   2.770   1.225
 1290SOL     OW 4112   2.197   2.112   1.814
 1290SOL    HW1 4113   2.239   2.196   1.831
 1290SOL    HW2 4114   2.106   2.125   1.843
 1291SOL     OW 4115   3.344   3.285   0.930
 1291SOL    HW1 4116   3.289   3.308   1.005
 1291SOL    HW2 4117   3.321   3.194   0.911
 1292SOL     OW 4118   3.529   3.606   0.593
 1292SOL    HW1 4119   3.532   3.575   0.502
 1292SOL    HW2 4120   3.490   3.534   0.642
 1293SOL     OW 4121   3.134   2.212   0.930
 1293SOL    HW1 4122   3.046   2.177   0.942
 1293SOL    HW2 4123   3.188   2.163   0.992
 1294SOL     OW 4124   2.615   2.487   1.457
 1294SOL    HW1 4125   2.607   2.451   1.546
 1294SOL    HW2 4126   2.598   2.412   1.400
 1295SOL     OW 4127   3.242   2.329   1.685
 1295SOL    HW1 4128   3.252   2.380   1.765
 1295SOL    HW2 4129   3.319   2.272   1.683
 1296SOL     OW 4130   2.858   2.277   1.227
 1296SOL    HW1 4131   2.780   2.299   1.277
 1296SOL    HW2 4132   2.827   2.218   1.158
 1297SOL     OW 4133   2.880   2.560   0.458
 1297SOL    HW1 4134   2.935   2.563   0.535
 1297SOL    HW2 4135   2.800   2.515   0.487
 1298SOL     OW 4136   1.951   2.682   0.776
 1298SOL    HW1 4137   2.030   2.676   0.829
 1298SOL    HW2 4138   1.905   2.758   0.810
 1299SOL     OW 4139   1.970   3.759   1.599
 1299SOL    HW1 4140   1.987   3.720   1.685
 1299SOL    HW2 4141   1.900   3.705   1.562
 1300SOL     OW 4142   2.717   2.190   0.223
 1300SOL    HW1 4143   2.775   2.264   0.210
 1300SOL    HW2 4144   2.739   2.129   0.153
 1301SOL     OW 4145   3.253   2.996   0.564
 1301SOL    HW1 4146   3.336   2.978   0.521
 1301SOL    HW2 4147   3.204   3.048   0.499
 1302SOL     OW 4148   2.412   2.045   0.892
 1302SOL    HW1 4149   2.414   2.069   0.985
 1302SOL    HW2 4150   2.412   2.128   0.845
 1303SOL     OW 4151   2.865   3.338   0.451
 1303SOL    HW1 4152   2.789   3.394   0.434
 1303SOL    HW2 4153   2.871   3.334   0.547
 1304SOL     OW 4154   2.216   3.674   0.882
 1304SOL    HW1 4155   2.263   3.591   0.876
 1304SOL    HW2 4156   2.285   3.740   0.877
 1305SOL     OW 4157   3.337   2.607   0.733
 1305SOL    HW1 4158   3.333   2.561   0.817
 1305SOL    HW2 4159   3.413   2.664   0.740
 1306SOL     OW 4160   2.063   2.142   1.503
 1306SOL    HW1 4161   1.979   2.189   1.499
 1306SOL    HW2 4162   2.045   2.067   1.559
 1307SOL     OW 4163   2.323   3.588   0.359
 1307SOL    HW1 4164   2.365   3.657   0.410
 1307SOL    HW2 4165   2.379   3.576   0.283
 1308SOL     OW 4166   3.282   1.939   0.447
 1308SOL    HW1 4167   3.263   1.994   0.371
 1308SOL    HW2 4168   3.364   1.973   0.481
 1309SOL     OW 4169   2.796   3.550   0.902
 1309SOL    HW1 4170   2.887   3.520   0.906
 1309SOL    HW2 4171   2.759   3.503   0.827
 1310SOL     OW 4172   2.245   2.556   0.496
 1310SOL    HW1 4173   2.262   2.464   0.514
 1310SOL    HW2 4174   2.150   2.565   0.504
 1311SOL     OW 4175   3.397   2.082   1.727
 1311SOL    HW1 4176   3.403   2.104   1.820
 1311SOL    HW2 4177   3.319   2.026   1.721
 1312SOL     OW 4178   2.628   2.141   1.755
 1312SOL    HW1 4179   2.705   2.084   1.753
 1312SOL    HW2 4180   2.580   2.113   1.833
 1313SOL     OW 4181   2.789   2.396   0.900
 1313SOL    HW1 4182   2.772   2.378   0.808
 1313SOL    HW2 4183   2.824   2.314   0.934
 1314SOL     OW 4184   2.408   1.915   0.500
 1314SOL    HW1 4185   2.329   1.916   0.554
 1314SOL    HW2 4186   2.412   2.002   0.460
 1315SOL     OW 4187   2.788   2.112   0.475
 1315SOL    HW1 4188   2.761   2.135   0.386
 1315SOL    HW2 4189   2.883   2.128   0.476
 1316SOL     OW 4190   3.062   3.463   0.813
 1316SOL    HW1 4191   3.093   3.513   0.738
 1316SOL    HW2 4192   3.142   3.437   0.859
 1317SOL     OW 4193   2.331   3.006   0.736
 1317SOL    HW1 4194   2.263   2.988   0.801
 1317SOL    HW2 4195   2.286   2.998   0.652
 1318SOL     OW 4196   3.121   3.654   0.604
 1318SOL    HW1 4197   3.173   3.717   0.554
 1318SOL    HW2 4198   3.057   3.707   0.651
 1319SOL     OW 4199   1.941   2.417   1.391
 1319SOL    HW1 4200   2.034   2.415   1.365
 1319SOL    HW2 4201   1.936   2.486   1.456
 1320SOL     OW 4202   2.420   2.087   1.165
 1320SOL    HW1 4203   2.463   2.012   1.205
 1320SOL    HW2 4204   2.330   2.083   1.196
 1321SOL     OW 4205   2.730   2.330   0.637
 1321SOL    HW1 4206   2.648   2.355   0.596
 1321SOL    HW2 4207   2.754   2.247   0.596
 1322SOL     OW 4208   2.871   1.916   0.751
 1322SOL    HW1 4209   2.814   1.905   0.676
 1322SOL    HW2 4210   2.854   1.840   0.807
 1323SOL     OW 4211   3.272   3.037   0.856
 1323SOL    HW1 4212   3.286   2.954   0.901
 1323SOL    HW2 4213   3.281   3.017   0.763
 1324SOL     OW 4214   3.341   2.441   0.954
 1324SOL    HW1 4215   3.275   2.378   0.982
 1324SOL    HW2 4216   3.391   2.462   1.033
 1325SOL     OW 4217   3.716   2.667   0.374
 1325SOL    HW1 4218   3.761   2.616   0.442
 1325SOL    HW2 4219   3.704   2.605   0.302
 1326SOL     OW 4220   3.553   3.137   0.645
 1326SOL    HW1 4221   3.643   3.164   0.664
 1326SOL    HW2 4222   3.500   3.214   0.667
 1327SOL     OW 4223   2.429   2.138   0.340
 1327SOL    HW1 4224   2.479   2.077   0.285
 1327SOL    HW2 4225   2.458   2.224   0.311
 1328SOL     OW 4226   2.780   1.960   1.395
 1328SOL    HW1 4227   2.803   1.939   1.304
 1328SOL    HW2 4228   2.859   1.999   1.431
 1329SOL     OW 4229   2.552   2.927   0.386
 1329SOL    HW1 4230   2.546   2.907   0.480
 1329SOL    HW2 4231   2.631   2.880   0.357
 1330SOL     OW 4232   2.284   2.672   1.242
 1330SOL    HW1 4233   2.347   2.688   1.313
 1330SOL    HW2 4234   2.248   2.586   1.261
 1331SOL     OW 4235   3.127   2.253   1.284
 1331SOL    HW1 4236   3.150   2.333   1.331
 1331SOL    HW2 4237   3.037   2.267   1.256
 1332SOL     OW 4238   1.932   3.432   1.358
 1332SOL    HW1 4239   1.883   3.493   1.303
 1332SOL    HW2 4240   2.017   3.473   1.370
 1333SOL     OW 4241   2.208   2.980   0.498
 1333SOL    HW1 4242   2.204   3.048   0.432
 1333SOL    HW2 4243   2.219   2.898   0.449
 1334SOL     OW 4244   2.413   2.396   0.853
 1334SOL    HW1 4245   2.432   2.458   0.783
 1334SOL    HW2 4246   2.476   2.418   0.922
 1335SOL     OW 4247   3.178   3.328   1.132
 1335SOL    HW1 4248   3.200   3.338   1.225
 1335SOL    HW2 4249   3.147   3.238   1.124
 1336SOL     OW 4250   3.424   2.532   0.462
 1336SOL    HW1 4251   3.386   2.555   0.547
 1336SOL    HW2 4252   3.507   2.581   0.459
 1337SOL     OW 4253   2.236   3.346   1.308
 1337SOL    HW1 4254   2.197   3.322   1.224
 1337SOL    HW2 4255   2.327   3.316   1.302
 1338SOL     OW 4256   2.277   2.606   1.603
 1338SOL    HW1 4257   2.337   2.650   1.544
 1338SOL    HW2 4258   2.314   2.519   1.615
 1339SOL     OW 4259   2.857   1.988   1.755
 1339SOL    HW1 4260   2.914   2.061   1.730
 1339SOL    HW2 4261   2.906   1.910   1.727
 1340SOL     OW 4262   2.359   1.902   1.748
 1340SOL    HW1 4263   2.316   1.848   1.683
 1340SOL    HW2 4264   2.300   1.977   1.760
 1341SOL     OW 4265   2.461   2.743   1.039
 1341SOL    HW1 4266   2.467   2.838   1.042
 1341SOL    HW2 4267   2.398   2.720   1.107
 1342SOL     OW 4268   2.160   2.060   1.247
 1342SOL    HW1 4269   2.123   2.092   1.329
 1342SOL    HW2 4270   2.142   1.966   1.247
 1343SOL     OW 4271   1.916   3.172   1.271
 1343SOL    HW1 4272   1.936   3.113   1.344
 1343SOL    HW2 4273   1.922   3.260   1.310
 1344SOL     OW 4274   2.578   2.485   1.054
 1344SOL    HW1 4275   2.658   2.469   1.003
 1344SOL    HW2 4276   2.558   2.577   1.039
 1345SOL     OW 4277   2.167   1.928   0.621
 1345SOL    HW1 4278   2.145   2.018   0.646
 1345SOL    HW2 4279   2.172   1.881   0.704
 1346SOL     OW 4280   3.526   2.264   0.400
 1346SOL    HW1 4281   3.522   2.180   0.446
 1346SOL    HW2 4282   3.453   2.315   0.434
 1347SOL     OW 4283   2.218   2.776   1.811
 1347SOL    HW1 4284   2.301   2.787   1.857
 1347SOL    HW2 4285   2.237   2.714   1.741
 1348SOL     OW 4286   2.170   2.670   0.946
 1348SOL    HW1 4287   2.263   2.691   0.939
 1348SOL    HW2 4288   2.168   2.581   0.981
 1349SOL     OW 4289   2.194   2.389   1.011
 1349SOL    HW1 4290   2.157   2.301   0.999
 1349SOL    HW2 4291   2.269   2.392   0.952
 1350SOL     OW 4292   2.991   2.230   1.687
 1350SOL    HW1 4293   2.945   2.290   1.745
 1350SOL    HW2 4294   3.078   2.269   1.676
 1351SOL     OW 4295   3.022   2.066   1.469
 1351SOL    HW1 4296   3.011   2.126   1.543
 1351SOL    HW2 4297   3.065   2.119   1.401
 1352SOL     OW 4298   1.868   3.200   0.219
 1352SOL    HW1 4299   1.786   3.208   0.170
 1352SOL    HW2 4300   1.871   3.108   0.246
 1353SOL     OW 4301   1.943   3.653   0.922
 1353SOL    HW1 4302   1.913   3.570   0.885
 1353SOL    HW2 4303   2.034   3.660   0.895
 1354SOL     OW 4304   2.367   3.446   0.906
 1354SOL    HW1 4305   2.446   3.498   0.921
 1354SOL    HW2 4306   2.395   3.379   0.843
 1355SOL     OW 4307   1.897   2.409   1.116
 1355SOL    HW1 4308   1.978   2.392   1.067
 1355SOL    HW2 4309   1.925   2.411   1.208
 1356SOL     OW 4310   2.054   2.382   1.729
 1356SOL    HW1 4311   2.106   2.339   1.661
 1356SOL    HW2 4312   2.012   2.456   1.683
 1357SOL     OW 4313   3.496   2.441   1.175
 1357SOL    HW1 4314   3.498   2.404   1.263
 1357SOL    HW2 4315   3.587   2.436   1.145
 1358SOL     OW 4316   2.107   3.421   1.726
 1358SOL    HW1 4317   2.076   3.480   1.794
 1358SOL    HW2 4318   2.115   3.336   1.768
 1359SOL     OW 4319   2.564   2.307   1.260
 1359SOL    HW1 4320   2.511   2.233   1.230
 1359SOL    HW2 4321   2.560   2.371   1.188
 1360SOL     OW 4322   1.986   2.992   1.471
 1360SOL    HW1 4323   1.996   2.943   1.553
 1360SOL    HW2 4324   2.013   2.931   1.403
 1361SOL     OW 4325   3.638   3.607   1.121
 1361SOL    HW1 4326   3.707   3.638   1.062
 1361SOL    HW2 4327   3.615   3.520   1.088
 1362SOL     OW 4328   3.108   3.605   1.113
 1362SOL    HW1 4329   3.187   3.627   1.063
 1362SOL    HW2 4330   3.114   3.510   1.125
 1363SOL     OW 4331   1.945   3.133   1.007
 1363SOL    HW1 4332   1.932   3.143   1.102
 1363SOL    HW2 4333   1.874   3.075   0.980
 1364SOL     OW 4334   3.567   2.000   0.505
 1364SOL    HW1 4335   3.647   1.997   0.454
 1364SOL    HW2 4336   3.558   1.911   0.541
 1365SOL     OW 4337   3.284   3.452   0.490
 1365SOL    HW1 4338   3.254   3.417   0.406
 1365SOL    HW2 4339   3.217   3.516   0.514
 1366SOL     OW 4340   2.009   3.658   1.849
 1366SOL    HW1 4341   1.953   3.593   1.891
 1366SOL    HW2 4342   2.049   3.707   1.921
 1367SOL     OW 4343   3.136   2.779   0.669
 1367SOL    HW1 4344   3.211   2.723   0.689
 1367SOL    HW2 4345   3.175   2.856   0.627
 1368SOL     OW 4346   3.481   3.617   1.337
 1368SOL    HW1 4347   3.544   3.615   1.265
 1368SOL    HW2 4348   3.535   3.628   1.416
 1369SOL     OW 4349   3.703   2.036   0.965
 1369SOL    HW1 4350   3.731   1.948   0.940
 1369SOL    HW2 4351   3.616   2.045   0.926
 1370SOL     OW 4352   2.124   2.181   0.716
 1370SOL    HW1 4353   2.036   2.213   0.693
 1370SOL    HW2 4354   2.121   2.171   0.811
 1371SOL     OW 4355   2.788   2.792   0.334
 1371SOL    HW1 4356   2.763   2.778   0.243
 1371SOL    HW2 4357   2.804   2.704   0.369
 1372SOL     OW 4358   2.203   3.151   1.491
 1372SOL    HW1 4359   2.189   3.226   1.434
 1372SOL    HW2 4360   2.122   3.100   1.484
 1373SOL     OW 4361   2.875   2.907   0.724
 1373SOL    HW1 4362   2.830   2.937   0.644
 1373SOL    HW2 4363   2.966   2.899   0.698
 1374SOL     OW 4364   2.878   2.102   0.966
 1374SOL    HW1 4365   2.874   2.055   0.883
 1374SOL    HW2 4366   2.877   2.034   1.033
 1375SOL     OW 4367   2.467   3.355   0.488
 1375SOL    HW1 4368   2.515   3.304   0.423
 1375SOL    HW2 4369   2.416   3.417   0.437
 1376SOL     OW 4370   3.582   2.247   1.385
 1376SOL    HW1 4371   3.651   2.313   1.386
 1376SOL    HW2 4372   3.614   2.180   1.325
 1377SOL     OW 4373   2.135   3.234   0.304
 1377SOL    HW1 4374   2.047   3.236   0.268
 1377SOL    HW2 4375   2.125   3.264   0.394
 1378SOL     OW 4376   1.975   2.879   1.719
 1378SOL    HW1 4377   1.898   2.860   1.774
 1378SOL    HW2 4378   2.049   2.844   1.769
 1379SOL     OW 4379   2.537   2.058   1.499
 1379SOL    HW1 4380   2.621   2.038   1.458
 1379SOL    HW2 4381   2.560   2.090   1.587
 1380SOL     OW 4382   4.110   0.030   3.131
 1380SOL    HW1 4383   4.049  -0.032   3.092
 1380SOL    HW2 4384   4.184   0.033   3.071
 1381SOL     OW 4385   1.937   2.024   0.302
 1381SOL    HW1 4386   1.904   2.101   0.255
 1381SOL    HW2 4387   2.025   2.011   0.268
 1382SOL     OW 4388   2.473   2.708   1.433
 1382SOL    HW1 4389   2.534   2.780   1.422
 1382SOL    HW2 4390   2.528   2.630   1.439
 1383SOL     OW 4391   3.350   3.645   0.977
 1383SOL    HW1 4392   3.372   3.703   0.904
 1383SOL    HW2 4393   3.429   3.643   1.031
 1384SOL     OW 4394   2.582   2.419   1.715
 1384SOL    HW1 4395   2.629   2.473   1.779
 1384SOL    HW2 4396   2.606   2.330   1.738
 1385SOL     OW 4397   3.057   2.175   0.472
 1385SOL    HW1 4398   3.136   2.142   0.430
 1385SOL    HW2 4399   3.088   2.227   0.545
 1386SOL     OW 4400   2.462   2.599   0.665
 1386SOL    HW1 4401   2.496   2.687   0.654
 1386SOL    HW2 4402   2.386   2.595   0.606
 1387SOL     OW 4403   3.627   2.203   1.652
 1387SOL    HW1 4404   3.610   2.226   1.561
 1387SOL    HW2 4405   3.549   2.157   1.681
 1388SOL     OW 4406   2.737   3.258   0.026
 1388SOL    HW1 4407   2.677   3.252   0.101
 1388SOL    HW2 4408   2.734   3.350   0.000
 1389SOL     OW 4409   2.536   3.670   0.977
 1389SOL    HW1 4410   2.516   3.748   0.926
 1389SOL    HW2 4411   2.625   3.646   0.952
 1390SOL     OW 4412   3.692   3.415   0.853
 1390SOL    HW1 4413   3.628   3.433   0.784
 1390SOL    HW2 4414   3.675   3.324   0.878
 1391SOL     OW 4415   2.097   3.180   1.856
 1391SOL    HW1 4416   2.050   3.108   1.814
 1391SOL    HW2 4417   2.068   3.179   1.947
 1392SOL     OW 4418   1.943   3.099   0.667
 1392SOL    HW1 4419   1.946   3.045   0.746
 1392SOL    HW2 4420   2.008   3.061   0.609
 1393SOL     OW 4421   3.675   2.045   1.236
 1393SOL    HW1 4422   3.684   1.951   1.249
 1393SOL    HW2 4423   3.685   2.057   1.141
 1394SOL     OW 4424   2.294   2.297   0.527
 1394SOL    HW1 4425   2.327   2.224   0.475
 1394SOL    HW2 4426   2.243   2.256   0.597
 1395SOL     OW 4427   2.194   2.417   1.292
 1395SOL    HW1 4428   2.248   2.362   1.349
 1395SOL    HW2 4429   2.213   2.387   1.204
 1396SOL     OW 4430   2.674   3.437   0.689
 1396SOL    HW1 4431   2.667   3.504   0.621
 1396SOL    HW2 4432   2.603   3.376   0.670
 1397SOL     OW 4433   3.289   2.091   1.118
 1397SOL    HW1 4434   3.319   2.014   1.166
 1397SOL    HW2 4435   3.244   2.144   1.184
 1398SOL     OW 4436   2.870   1.880   1.141
 1398SOL    HW1 4437   2.818   1.812   1.099
 1398SOL    HW2 4438   2.959   1.843   1.144
 1399SOL     OW 4439   2.622   3.193   0.328
 1399SOL    HW1 4440   2.593   3.101   0.329
 1399SOL    HW2 4441   2.717   3.188   0.338
 1400SOL     OW 4442   3.169   2.319   0.680
 1400SOL    HW1 4443   3.120   2.401   0.686
 1400SOL    HW2 4444   3.161   2.281   0.768
 1401SOL     OW 4445   3.447   2.065   0.879
 1401SOL    HW1 4446   3.389   2.086   0.952
 1401SOL    HW2 4447   3.447   2.144   0.824
 1402SOL     OW 4448   1.897   2.939   0.315
 1402SOL    HW1 4449   1.982   2.942   0.270
 1402SOL    HW2 4450   1.882   2.846   0.330
 1403SOL     OW 4451   2.091   2.487   1.986
 1403SOL    HW1 4452   2.002   2.484   2.022
 1403SOL    HW2 4453   2.081   2.461   1.895
 1404SOL     OW 4454   2.085   2.150   2.849
 1404SOL    HW1 4455   2.109   2.132   2.940
 1404SOL    HW2 4456   1.996   2.115   2.841
 1405SOL     OW 4457   1.865   2.245   2.499
 1405SOL    HW1 4458   1.783   2.273   2.541
 1405SOL    HW2 4459   1.842   2.166   2.451
 1406SOL     OW 4460   2.415   3.153   3.031
 1406SOL    HW1 4461   2.326   3.169   2.998
 1406SOL    HW2 4462   2.441   3.237   3.070
 1407SOL     OW 4463   3.430   3.371   2.570
 1407SOL    HW1 4464   3.384   3.351   2.651
 1407SOL    HW2 4465   3.361   3.380   2.505
 1408SOL     OW 4466   2.990   2.554   2.564
 1408SOL    HW1 4467   3.039   2.634   2.547
 1408SOL    HW2 4468   2.943   2.571   2.646
 1409SOL     OW 4469   3.643   2.464   2.095
 1409SOL    HW1 4470   3.607   2.463   2.007
 1409SOL    HW2 4471   3.600   2.391   2.139
 1410SOL     OW 4472   2.608   3.003   2.896
 1410SOL    HW1 4473   2.543   3.032   2.960
 1410SOL    HW2 4474   2.641   3.083   2.857
 1411SOL     OW 4475   2.549   2.864   2.506
 1411SOL    HW1 4476   2.614   2.854   2.576
 1411SOL    HW2 4477   2.480   2.917   2.545
 1412SOL     OW 4478   2.188   3.293   2.932
 1412SOL    HW1 4479   2.117   3.258   2.879
 1412SOL    HW2 4480   2.241   3.345   2.870
 1413SOL     OW 4481   3.477   2.313   2.599
 1413SOL    HW1 4482   3.401   2.337   2.546
 1413SOL    HW2 4483   3.487   2.386   2.660
 1414SOL     OW 4484   2.079   3.578   2.335
 1414SOL    HW1 4485   2.099   3.653   2.391
 1414SOL    HW2 4486   2.154   3.570   2.276
 1415SOL     OW 4487   2.090   3.306   2.401
 1415SOL    HW1 4488   2.073   3.400   2.405
 1415SOL    HW2 4489   2.031   3.268   2.467
 1416SOL     OW 4490   2.122   2.954   2.755
 1416SOL    HW1 4491   2.112   2.867   2.794
 1416SOL    HW2 4492   2.064   3.010   2.807
 1417SOL     OW 4493   2.449   2.847   1.997
 1417SOL    HW1 4494   2.475   2.917   1.938
 1417SOL    HW2 4495   2.489   2.871   2.081
 1418SOL     OW 4496   1.979   2.515   2.422
 1418SOL    HW1 4497   1.947   2.427   2.442
 1418SOL    HW2 4498   1.969   2.564   2.504
 1419SOL     OW 4499   3.697   3.615   2.252
 1419SOL    HW1 4500   3.780   3.582   2.287
 1419SOL    HW2 4501   3.720   3.698   2.210
 1420SOL     OW 4502   1.894   3.456   1.984
 1420SOL    HW1 4503   1.877   3.364   2.003
 1420SOL    HW2 4504   1.869   3.503   2.064
 1421SOL     OW 4505   3.557   2.782   2.507
 1421SOL    HW1 4506   3.636   2.740   2.474
 1421SOL    HW2 4507   3.524   2.833   2.433
 1422SOL     OW 4508   3.499   2.965   2.296
 1422SOL    HW1 4509   3.586   2.958   2.258
 1422SOL    HW2 4510   3.508   3.029   2.366
 1423SOL     OW 4511   2.476   3.247   2.596
 1423SOL    HW1 4512   2.429   3.164   2.606
 1423SOL    HW2 4513   2.458   3.274   2.507
 1424SOL     OW 4514   2.678   1.863   2.373
 1424SOL    HW1 4515   2.718   1.947   2.352
 1424SOL    HW2 4516   2.584   1.882   2.381
 1425SOL     OW 4517   2.071   2.833   3.122
 1425SOL    HW1 4518   2.138   2.768   3.101
 1425SOL    HW2 4519   1.995   2.805   3.071
 1426SOL     OW 4520   3.398   2.823   2.079
 1426SOL    HW1 4521   3.308   2.796   2.099
 1426SOL    HW2 4522   3.425   2.875   2.155
 1427SOL     OW 4523   3.302   3.288   2.794
 1427SOL    HW1 4524   3.261   3.291   2.881
 1427SOL    HW2 4525   3.303   3.196   2.771
 1428SOL     OW 4526   3.501   3.612   2.441
 1428SOL    HW1 4527   3.563   3.589   2.372
 1428SOL    HW2 4528   3.487   3.530   2.489
 1429SOL     OW 4529   2.457   2.583   2.130
 1429SOL    HW1 4530   2.457   2.665   2.080
 1429SOL    HW2 4531   2.391   2.597   2.198
 1430SOL     OW 4532   3.163   2.191   2.821
 1430SOL    HW1 4533   3.070   2.176   2.809
 1430SOL    HW2 4534   3.186   2.141   2.899
 1431SOL     OW 4535   2.910   2.561   2.290
 1431SOL    HW1 4536   2.926   2.554   2.384
 1431SOL    HW2 4537   2.829   2.512   2.277
 1432SOL     OW 4538   1.950   2.685   2.636
 1432SOL    HW1 4539   2.030   2.680   2.689
 1432SOL    HW2 4540   1.903   2.760   2.671
 1433SOL     OW 4541   2.757   2.211   2.057
 1433SOL    HW1 4542   2.796   2.273   1.996
 1433SOL    HW2 4543   2.769   2.126   2.015
 1434SOL     OW 4544   3.250   2.987   2.420
 1434SOL    HW1 4545   3.322   2.984   2.357
 1434SOL    HW2 4546   3.197   3.063   2.394
 1435SOL     OW 4547   2.410   2.037   2.744
 1435SOL    HW1 4548   2.405   2.057   2.838
 1435SOL    HW2 4549   2.411   2.122   2.701
 1436SOL     OW 4550   2.860   3.307   2.346
 1436SOL    HW1 4551   2.829   3.380   2.293
 1436SOL    HW2 4552   2.841   3.332   2.436
 1437SOL     OW 4553   2.217   3.672   2.724
 1437SOL    HW1 4554   2.262   3.588   2.732
 1437SOL    HW2 4555   2.285   3.737   2.743
 1438SOL     OW 4556   3.636   2.929   2.750
 1438SOL    HW1 4557   3.609   2.919   2.659
 1438SOL    HW2 4558   3.560   2.902   2.801
 1439SOL     OW 4559   2.180   2.817   2.115
 1439SOL    HW1 4560   2.258   2.837   2.064
 1439SOL    HW2 4561   2.146   2.735   2.078
 1440SOL     OW 4562   3.345   2.602   2.586
 1440SOL    HW1 4563   3.333   2.564   2.673
 1440SOL    HW2 4564   3.418   2.663   2.596
 1441SOL     OW 4565   4.235   4.293   0.270
 1441SOL    HW1 4566   4.163   4.348   0.238
 1441SOL    HW2 4567   4.248   4.321   0.360
 1442SOL     OW 4568   2.318   3.606   2.191
 1442SOL    HW1 4569   2.360   3.662   2.257
 1442SOL    HW2 4570   2.391   3.570   2.141
 1443SOL     OW 4571   3.263   1.970   2.296
 1443SOL    HW1 4572   3.253   1.944   2.204
 1443SOL    HW2 4573   3.358   1.973   2.310
 1444SOL     OW 4574   2.101   3.627   3.070
 1444SOL    HW1 4575   2.187   3.588   3.090
 1444SOL    HW2 4576   2.095   3.622   2.974
 1445SOL     OW 4577   2.801   3.560   2.762
 1445SOL    HW1 4578   2.878   3.506   2.779
 1445SOL    HW2 4579   2.753   3.512   2.694
 1446SOL     OW 4580   2.257   2.557   2.337
 1446SOL    HW1 4581   2.276   2.464   2.350
 1446SOL    HW2 4582   2.163   2.565   2.354
 1447SOL     OW 4583   2.500   1.984   1.966
 1447SOL    HW1 4584   2.566   1.916   1.979
 1447SOL    HW2 4585   2.449   1.953   1.891
 1448SOL     OW 4586   2.672   3.248   2.795
 1448SOL    HW1 4587   2.759   3.244   2.755
 1448SOL    HW2 4588   2.611   3.252   2.722
 1449SOL     OW 4589   2.791   2.371   2.768
 1449SOL    HW1 4590   2.767   2.362   2.675
 1449SOL    HW2 4591   2.822   2.283   2.793
 1450SOL     OW 4592   2.412   1.925   2.363
 1450SOL    HW1 4593   2.332   1.925   2.415
 1450SOL    HW2 4594   2.405   2.003   2.308
 1451SOL     OW 4595   2.153   1.910   2.047
 1451SOL    HW1 4596   2.213   1.974   2.007
 1451SOL    HW2 4597   2.211   1.846   2.089
 1452SOL     OW 4598   2.801   2.109   2.321
 1452SOL    HW1 4599   2.775   2.149   2.238
 1452SOL    HW2 4600   2.896   2.123   2.325
 1453SOL     OW 4601   3.079   3.440   2.661
 1453SOL    HW1 4602   3.100   3.507   2.597
 1453SOL    HW2 4603   3.159   3.431   2.713
 1454SOL     OW 4604   2.332   3.009   2.594
 1454SOL    HW1 4605   2.263   2.994   2.658
 1454SOL    HW2 4606   2.289   2.995   2.509
 1455SOL     OW 4607   3.128   3.659   2.473
 1455SOL    HW1 4608   3.177   3.721   2.419
 1455SOL    HW2 4609   3.060   3.711   2.514
 1456SOL     OW 4610   2.881   2.402   1.889
 1456SOL    HW1 4611   2.845   2.488   1.866
 1456SOL    HW2 4612   2.953   2.420   1.949
 1457SOL     OW 4613   4.144   0.208   0.113
 1457SOL    HW1 4614   4.238   0.197   0.128
 1457SOL    HW2 4615   4.121   0.284   0.167
 1458SOL     OW 4616   2.413   2.059   3.017
 1458SOL    HW1 4617   2.496   2.074   3.061
 1458SOL    HW2 4618   2.352   2.119   3.059
 1459SOL     OW 4619   2.730   2.320   2.503
 1459SOL    HW1 4620   2.683   2.374   2.439
 1459SOL    HW2 4621   2.751   2.240   2.455
 1460SOL     OW 4622   2.877   1.913   2.612
 1460SOL    HW1 4623   2.819   1.908   2.537
 1460SOL    HW2 4624   2.855   1.836   2.664
 1461SOL     OW 4625   3.301   3.029   2.710
 1461SOL    HW1 4626   3.250   2.953   2.739
 1461SOL    HW2 4627   3.301   3.024   2.615
 1462SOL     OW 4628   3.330   2.463   2.837
 1462SOL    HW1 4629   3.279   2.382   2.842
 1462SOL    HW2 4630   3.394   2.456   2.907
 1463SOL     OW 4631   3.706   2.690   2.254
 1463SOL    HW1 4632   3.762   2.632   2.304
 1463SOL    HW2 4633   3.679   2.639   2.178
 1464SOL     OW 4634   2.348   3.277   2.066
 1464SOL    HW1 4635   2.267   3.249   2.109
 1464SOL    HW2 4636   2.339   3.246   1.976
 1465SOL     OW 4637   3.540   3.128   2.499
 1465SOL    HW1 4638   3.633   3.131   2.521
 1465SOL    HW2 4639   3.505   3.212   2.529
 1466SOL     OW 4640   3.265   2.423   1.944
 1466SOL    HW1 4641   3.192   2.417   2.006
 1466SOL    HW2 4642   3.329   2.360   1.977
 1467SOL     OW 4643   2.388   2.124   2.179
 1467SOL    HW1 4644   2.434   2.078   2.109
 1467SOL    HW2 4645   2.364   2.208   2.140
 1468SOL     OW 4646   2.993   3.090   2.969
 1468SOL    HW1 4647   2.915   3.070   3.021
 1468SOL    HW2 4648   2.959   3.115   2.884
 1469SOL     OW 4649   0.572   4.176   0.140
 1469SOL    HW1 4650   0.604   4.139   0.058
 1469SOL    HW2 4651   0.641   4.237   0.167
 1470SOL     OW 4652   2.576   2.920   2.232
 1470SOL    HW1 4653   2.559   2.904   2.325
 1470SOL    HW2 4654   2.652   2.866   2.211
 1471SOL     OW 4655   4.138   1.241   0.100
 1471SOL    HW1 4656   4.059   1.294   0.106
 1471SOL    HW2 4657   4.192   1.285   0.034
 1472SOL     OW 4658   2.211   2.972   2.351
 1472SOL    HW1 4659   2.206   3.047   2.291
 1472SOL    HW2 4660   2.206   2.895   2.294
 1473SOL     OW 4661   2.412   2.399   2.726
 1473SOL    HW1 4662   2.431   2.457   2.652
 1473SOL    HW2 4663   2.477   2.423   2.792
 1474SOL     OW 4664   3.118   3.208   2.354
 1474SOL    HW1 4665   3.165   3.291   2.355
 1474SOL    HW2 4666   3.026   3.232   2.346
 1475SOL     OW 4667   3.441   2.488   2.338
 1475SOL    HW1 4668   3.400   2.536   2.410
 1475SOL    HW2 4669   3.485   2.556   2.287
 1476SOL     OW 4670   2.443   2.757   2.917
 1476SOL    HW1 4671   2.506   2.823   2.886
 1476SOL    HW2 4672   2.362   2.806   2.932
 1477SOL     OW 4673   3.224   2.732   2.861
 1477SOL    HW1 4674   3.131   2.720   2.839
 1477SOL    HW2 4675   3.258   2.642   2.869
 1478SOL     OW 4676   3.065   2.397   2.131
 1478SOL    HW1 4677   3.075   2.316   2.181
 1478SOL    HW2 4678   3.015   2.455   2.189
 1479SOL     OW 4679   4.339   4.303   0.007
 1479SOL    HW1 4680   4.337   4.336   0.096
 1479SOL    HW2 4681   4.299   4.216   0.012
 1480SOL     OW 4682   4.089   0.978   0.046
 1480SOL    HW1 4683   4.140   0.926   0.107
 1480SOL    HW2 4684   4.113   1.069   0.065
 1481SOL     OW 4685   2.580   2.493   2.920
 1481SOL    HW1 4686   2.661   2.471   2.874
 1481SOL    HW2 4687   2.569   2.587   2.906
 1482SOL     OW 4688   2.166   1.926   2.485
 1482SOL    HW1 4689   2.146   2.017   2.507
 1482SOL    HW2 4690   2.172   1.882   2.570
 1483SOL     OW 4691   3.481   2.239   2.229
 1483SOL    HW1 4692   3.508   2.174   2.294
 1483SOL    HW2 4693   3.457   2.316   2.280
 1484SOL     OW 4694   2.888   2.620   2.824
 1484SOL    HW1 4695   2.887   2.632   2.919
 1484SOL    HW2 4696   2.860   2.529   2.811
 1485SOL     OW 4697   3.387   2.142   1.992
 1485SOL    HW1 4698   3.325   2.073   2.015
 1485SOL    HW2 4699   3.424   2.170   2.075
 1486SOL     OW 4700   2.924   3.199   2.708
 1486SOL    HW1 4701   2.931   3.126   2.646
 1486SOL    HW2 4702   2.988   3.264   2.675
 1487SOL     OW 4703   2.171   2.674   2.805
 1487SOL    HW1 4704   2.264   2.683   2.784
 1487SOL    HW2 4705   2.162   2.584   2.835
 1488SOL     OW 4706   2.184   2.399   2.868
 1488SOL    HW1 4707   2.151   2.309   2.860
 1488SOL    HW2 4708   2.264   2.400   2.816
 1489SOL     OW 4709   1.864   3.182   2.055
 1489SOL    HW1 4710   1.778   3.198   2.017
 1489SOL    HW2 4711   1.860   3.093   2.088
 1490SOL     OW 4712   1.954   3.646   2.797
 1490SOL    HW1 4713   1.924   3.567   2.754
 1490SOL    HW2 4714   2.043   3.660   2.764
 1491SOL     OW 4715   2.358   3.439   2.765
 1491SOL    HW1 4716   2.427   3.496   2.797
 1491SOL    HW2 4717   2.403   3.371   2.715
 1492SOL     OW 4718   0.659   0.434  -0.013
 1492SOL    HW1 4719   0.722   0.422   0.059
 1492SOL    HW2 4720   0.577   0.455   0.031
 1493SOL     OW 4721   1.892   2.409   2.954
 1493SOL    HW1 4722   1.973   2.393   2.907
 1493SOL    HW2 4723   1.917   2.404   3.047
 1494SOL     OW 4724   2.679   2.432   2.222
 1494SOL    HW1 4725   2.684   2.357   2.163
 1494SOL    HW2 4726   2.602   2.481   2.191
 1495SOL     OW 4727   3.510   2.425   3.040
 1495SOL    HW1 4728   3.523   2.363   3.112
 1495SOL    HW2 4729   3.598   2.436   3.002
 1496SOL     OW 4730   2.325   2.354   2.048
 1496SOL    HW1 4731   2.383   2.427   2.071
 1496SOL    HW2 4732   2.239   2.395   2.036
 1497SOL     OW 4733   4.224   0.824   0.228
 1497SOL    HW1 4734   4.198   0.770   0.303
 1497SOL    HW2 4735   4.253   0.762   0.162
 1498SOL     OW 4736   3.142   2.725   2.142
 1498SOL    HW1 4737   3.096   2.680   2.213
 1498SOL    HW2 4738   3.151   2.658   2.074
 1499SOL     OW 4739   3.591   3.604   2.968
 1499SOL    HW1 4740   3.672   3.620   2.920
 1499SOL    HW2 4741   3.605   3.521   3.013
 1500SOL     OW 4742   1.947   3.122   2.882
 1500SOL    HW1 4743   1.931   3.141   2.974
 1500SOL    HW2 4744   1.867   3.077   2.852
 1501SOL     OW 4745   3.582   2.011   2.371
 1501SOL    HW1 4746   3.654   1.995   2.310
 1501SOL    HW2 4747   3.565   1.925   2.411
 1502SOL     OW 4748   3.254   3.441   2.361
 1502SOL    HW1 4749   3.297   3.477   2.284
 1502SOL    HW2 4750   3.207   3.515   2.399
 1503SOL     OW 4751   3.134   2.775   2.527
 1503SOL    HW1 4752   3.210   2.719   2.543
 1503SOL    HW2 4753   3.171   2.852   2.483
 1504SOL     OW 4754   2.523   3.485   2.059
 1504SOL    HW1 4755   2.547   3.486   1.966
 1504SOL    HW2 4756   2.475   3.403   2.071
 1505SOL     OW 4757   3.701   2.037   2.829
 1505SOL    HW1 4758   3.729   1.949   2.804
 1505SOL    HW2 4759   3.612   2.044   2.795
 1506SOL     OW 4760   2.123   2.179   2.576
 1506SOL    HW1 4761   2.037   2.213   2.552
 1506SOL    HW2 4762   2.121   2.173   2.671
 1507SOL     OW 4763   2.789   2.771   2.137
 1507SOL    HW1 4764   2.871   2.812   2.109
 1507SOL    HW2 4765   2.816   2.698   2.192
 1508SOL     OW 4766   2.914   2.965   2.565
 1508SOL    HW1 4767   2.844   2.915   2.607
 1508SOL    HW2 4768   2.979   2.899   2.540
 1509SOL     OW 4769   2.894   2.106   2.818
 1509SOL    HW1 4770   2.886   2.053   2.739
 1509SOL    HW2 4771   2.880   2.045   2.890
 1510SOL     OW 4772   2.462   3.350   2.346
 1510SOL    HW1 4773   2.504   3.299   2.277
 1510SOL    HW2 4774   2.389   3.393   2.303
 1511SOL     OW 4775   2.112   3.195   2.163
 1511SOL    HW1 4776   2.021   3.198   2.132
 1511SOL    HW2 4777   2.109   3.237   2.249
 1512SOL     OW 4778   1.942   2.195   1.897
 1512SOL    HW1 4779   1.853   2.175   1.865
 1512SOL    HW2 4780   1.970   2.270   1.845
 1513SOL     OW 4781   1.929   2.017   2.171
 1513SOL    HW1 4782   1.915   2.098   2.121
 1513SOL    HW2 4783   2.014   1.985   2.141
 1514SOL     OW 4784   3.355   3.668   2.850
 1514SOL    HW1 4785   3.384   3.704   2.766
 1514SOL    HW2 4786   3.434   3.632   2.890
 1515SOL     OW 4787   3.079   2.182   2.319
 1515SOL    HW1 4788   3.142   2.110   2.311
 1515SOL    HW2 4789   3.107   2.229   2.398
 1516SOL     OW 4790   2.449   2.602   2.536
 1516SOL    HW1 4791   2.489   2.687   2.518
 1516SOL    HW2 4792   2.383   2.592   2.467
 1517SOL     OW 4793   2.672   3.232   1.927
 1517SOL    HW1 4794   2.657   3.219   2.021
 1517SOL    HW2 4795   2.763   3.262   1.921
 1518SOL     OW 4796   2.526   3.654   2.814
 1518SOL    HW1 4797   2.502   3.743   2.789
 1518SOL    HW2 4798   2.619   3.647   2.792
 1519SOL     OW 4799   2.728   2.827   2.717
 1519SOL    HW1 4800   2.781   2.760   2.760
 1519SOL    HW2 4801   2.698   2.883   2.789
 1520SOL     OW 4802   3.713   3.412   2.705
 1520SOL    HW1 4803   3.628   3.401   2.661
 1520SOL    HW2 4804   3.725   3.331   2.755
 1521SOL     OW 4805   1.946   3.094   2.528
 1521SOL    HW1 4806   1.949   3.046   2.611
 1521SOL    HW2 4807   2.015   3.054   2.475
 1522SOL     OW 4808   3.703   2.061   3.106
 1522SOL    HW1 4809   3.700   1.970   3.137
 1522SOL    HW2 4810   3.692   2.054   3.011
 1523SOL     OW 4811   2.294   2.296   2.388
 1523SOL    HW1 4812   2.322   2.224   2.331
 1523SOL    HW2 4813   2.243   2.253   2.457
 1524SOL     OW 4814   2.686   3.443   2.541
 1524SOL    HW1 4815   2.672   3.491   2.459
 1524SOL    HW2 4816   2.610   3.384   2.548
 1525SOL     OW 4817   2.874   1.879   2.999
 1525SOL    HW1 4818   2.827   1.820   2.940
 1525SOL    HW2 4819   2.962   1.843   3.004
 1526SOL     OW 4820   2.639   3.189   2.190
 1526SOL    HW1 4821   2.611   3.099   2.206
 1526SOL    HW2 4822   2.716   3.200   2.246
 1527SOL     OW 4823   0.280   1.216   0.025
 1527SOL    HW1 4824   0.275   1.251   0.114
 1527SOL    HW2 4825   0.372   1.227  -0.001
 1528SOL     OW 4826   3.216   1.916   2.028
 1528SOL    HW1 4827   3.245   1.853   1.963
 1528SOL    HW2 4828   3.128   1.887   2.053
 1529SOL     OW 4829   3.157   2.317   2.550
 1529SOL    HW1 4830   3.103   2.396   2.556
 1529SOL    HW2 4831   3.158   2.282   2.639
 1530SOL     OW 4832   3.444   2.075   2.738
 1530SOL    HW1 4833   3.357   2.092   2.774
 1530SOL    HW2 4834   3.461   2.149   2.680
 1531SOL     OW 4835   1.903   2.932   2.168
 1531SOL    HW1 4836   1.997   2.926   2.152
 1531SOL    HW2 4837   1.876   2.843   2.190
 1532SOL     OW 4838   2.743   3.512   2.219
 1532SOL    HW1 4839   2.665   3.501   2.165
 1532SOL    HW2 4840   2.729   3.595   2.266
 1533SOL     OW 4841   2.091   4.342   0.146
 1533SOL    HW1 4842   2.002   4.320   0.173
 1533SOL    HW2 4843   2.086   4.355   0.052
 1534SOL     OW 4844   2.090   3.994   0.987
 1534SOL    HW1 4845   2.111   3.976   1.079
 1534SOL    HW2 4846   1.997   3.969   0.980
 1535SOL     OW 4847   1.864   4.090   0.646
 1535SOL    HW1 4848   1.783   4.121   0.687
 1535SOL    HW2 4849   1.837   4.014   0.595
 1536SOL     OW 4850   3.599   4.334   0.254
 1536SOL    HW1 4851   3.586   4.349   0.160
 1536SOL    HW2 4852   3.594   4.239   0.263
 1537SOL     OW 4853   2.303   4.116   1.488
 1537SOL    HW1 4854   2.364   4.100   1.559
 1537SOL    HW2 4855   2.224   4.069   1.512
 1538SOL     OW 4856   3.477   4.167   0.743
 1538SOL    HW1 4857   3.402   4.186   0.686
 1538SOL    HW2 4858   3.472   4.234   0.811
 1539SOL     OW 4859   1.922   4.344   0.553
 1539SOL    HW1 4860   1.917   4.252   0.577
 1539SOL    HW2 4861   1.940   4.390   0.635
 1540SOL     OW 4862   2.685   3.727   0.550
 1540SOL    HW1 4863   2.726   3.804   0.511
 1540SOL    HW2 4864   2.592   3.738   0.533
 1541SOL     OW 4865   2.204   3.989   1.812
 1541SOL    HW1 4866   2.224   4.082   1.818
 1541SOL    HW2 4867   2.112   3.982   1.836
 1542SOL     OW 4868   3.135   4.079   0.929
 1542SOL    HW1 4869   3.048   4.040   0.934
 1542SOL    HW2 4870   3.188   4.026   0.988
 1543SOL     OW 4871   2.628   4.338   1.468
 1543SOL    HW1 4872   2.598   4.300   1.550
 1543SOL    HW2 4873   2.575   4.295   1.400
 1544SOL     OW 4874   2.937  -0.010   0.449
 1544SOL    HW1 4875   2.988   0.044   0.508
 1544SOL    HW2 4876   2.846   0.001   0.479
 1545SOL     OW 4877   1.955   0.107   0.769
 1545SOL    HW1 4878   2.035   0.135   0.814
 1545SOL    HW2 4879   1.914   0.188   0.739
 1546SOL     OW 4880   2.412   3.915   0.897
 1546SOL    HW1 4881   2.417   3.982   0.966
 1546SOL    HW2 4882   2.413   3.964   0.815
 1547SOL     OW 4883   3.347   0.041   0.719
 1547SOL    HW1 4884   3.321  -0.008   0.798
 1547SOL    HW2 4885   3.388   0.121   0.753
 1548SOL     OW 4886   2.060   3.997   1.504
 1548SOL    HW1 4887   1.984   4.055   1.510
 1548SOL    HW2 4888   2.032   3.915   1.545
 1549SOL     OW 4889   3.255   3.834   0.446
 1549SOL    HW1 4890   3.221   3.836   0.357
 1549SOL    HW2 4891   3.349   3.850   0.437
 1550SOL     OW 4892   2.643   3.939   1.754
 1550SOL    HW1 4893   2.734   3.969   1.756
 1550SOL    HW2 4894   2.592   4.017   1.775
 1551SOL     OW 4895   2.784   4.217   0.911
 1551SOL    HW1 4896   2.753   4.198   0.822
 1551SOL    HW2 4897   2.825   4.136   0.939
 1552SOL     OW 4898   2.418   3.794   0.510
 1552SOL    HW1 4899   2.333   3.795   0.553
 1552SOL    HW2 4900   2.416   3.868   0.450
 1553SOL     OW 4901   2.804   3.968   0.475
 1553SOL    HW1 4902   2.794   3.977   0.380
 1553SOL    HW2 4903   2.897   3.985   0.490
 1554SOL     OW 4904   2.939   4.299   1.461
 1554SOL    HW1 4905   2.869   4.362   1.477
 1554SOL    HW2 4906   3.019   4.344   1.489
 1555SOL     OW 4907   1.937   4.284   1.397
 1555SOL    HW1 4908   2.028   4.281   1.369
 1555SOL    HW2 4909   1.925   4.373   1.429
 1556SOL     OW 4910   2.436   3.949   1.186
 1556SOL    HW1 4911   2.439   3.883   1.116
 1556SOL    HW2 4912   2.342   3.963   1.201
 1557SOL     OW 4913   2.724   4.164   0.657
 1557SOL    HW1 4914   2.703   4.239   0.601
 1557SOL    HW2 4915   2.749   4.095   0.596
 1558SOL     OW 4916   2.870   3.772   0.754
 1558SOL    HW1 4917   2.813   3.764   0.678
 1558SOL    HW2 4918   2.852   3.694   0.806
 1559SOL     OW 4919   3.340   4.300   0.963
 1559SOL    HW1 4920   3.275   4.237   0.993
 1559SOL    HW2 4921   3.388   4.325   1.042
 1560SOL     OW 4922   2.395   3.989   0.316
 1560SOL    HW1 4923   2.383   3.940   0.234
 1560SOL    HW2 4924   2.390   4.080   0.289
 1561SOL     OW 4925   3.150   4.150   1.258
 1561SOL    HW1 4926   3.180   4.204   1.331
 1561SOL    HW2 4927   3.054   4.154   1.263
 1562SOL     OW 4928   2.410   4.252   0.866
 1562SOL    HW1 4929   2.409   4.308   0.789
 1562SOL    HW2 4930   2.471   4.295   0.926
 1563SOL     OW 4931   3.426   4.326   0.482
 1563SOL    HW1 4932   3.397   4.369   0.563
 1563SOL    HW2 4933   3.502   4.377   0.453
 1564SOL     OW 4934   2.325   3.757   1.746
 1564SOL    HW1 4935   2.261   3.693   1.779
 1564SOL    HW2 4936   2.286   3.842   1.766
 1565SOL     OW 4937   2.165   3.931   1.251
 1565SOL    HW1 4938   2.137   3.980   1.328
 1565SOL    HW2 4939   2.106   3.856   1.246
 1566SOL     OW 4940   2.590   4.359   1.045
 1566SOL    HW1 4941   2.662   4.325   0.992
 1566SOL    HW2 4942   2.585   4.452   1.023
 1567SOL     OW 4943   2.169   3.789   0.628
 1567SOL    HW1 4944   2.147   3.880   0.647
 1567SOL    HW2 4945   2.163   3.744   0.712
 1568SOL     OW 4946   3.483   4.081   0.378
 1568SOL    HW1 4947   3.519   4.018   0.441
 1568SOL    HW2 4948   3.460   4.157   0.431
 1569SOL     OW 4949   3.402   4.013   0.128
 1569SOL    HW1 4950   3.372   3.924   0.147
 1569SOL    HW2 4951   3.431   4.048   0.212
 1570SOL     OW 4952   2.188   4.242   1.020
 1570SOL    HW1 4953   2.158   4.155   0.993
 1570SOL    HW2 4954   2.262   4.260   0.962
 1571SOL     OW 4955   3.012   4.090   1.760
 1571SOL    HW1 4956   2.989   4.182   1.766
 1571SOL    HW2 4957   3.103   4.089   1.733
 1572SOL     OW 4958   1.903   4.258   1.115
 1572SOL    HW1 4959   1.985   4.260   1.066
 1572SOL    HW2 4960   1.930   4.265   1.207
 1573SOL     OW 4961   2.056   4.236   1.716
 1573SOL    HW1 4962   2.105   4.230   1.634
 1573SOL    HW2 4963   2.025   4.327   1.718
 1574SOL     OW 4964   3.506   4.344   1.183
 1574SOL    HW1 4965   3.499   4.278   1.251
 1574SOL    HW2 4966   3.587   4.322   1.137
 1575SOL     OW 4967   2.485   4.223   1.258
 1575SOL    HW1 4968   2.481   4.132   1.228
 1575SOL    HW2 4969   2.524   4.271   1.184
 1576SOL     OW 4970   3.593   3.867   0.523
 1576SOL    HW1 4971   3.639   3.828   0.449
 1576SOL    HW2 4972   3.563   3.792   0.575
 1577SOL     OW 4973   3.698   3.893   0.974
 1577SOL    HW1 4974   3.731   3.811   0.937
 1577SOL    HW2 4975   3.614   3.907   0.931
 1578SOL     OW 4976   2.124   4.040   0.716
 1578SOL    HW1 4977   2.036   4.069   0.691
 1578SOL    HW2 4978   2.120   4.031   0.811
 1579SOL     OW 4979   2.888   3.960   0.953
 1579SOL    HW1 4980   2.879   3.914   0.869
 1579SOL    HW2 4981   2.900   3.891   1.018
 1580SOL     OW 4982   3.590   4.145   1.350
 1580SOL    HW1 4983   3.670   4.192   1.375
 1580SOL    HW2 4984   3.622   4.062   1.314
 1581SOL     OW 4985   1.915   4.078   0.042
 1581SOL    HW1 4986   1.860   4.002   0.023
 1581SOL    HW2 4987   1.962   4.094  -0.040
 1582SOL     OW 4988   1.933   3.887   0.325
 1582SOL    HW1 4989   1.906   3.956   0.265
 1582SOL    HW2 4990   2.026   3.873   0.307
 1583SOL     OW 4991   2.598   4.236   1.726
 1583SOL    HW1 4992   2.569   4.320   1.764
 1583SOL    HW2 4993   2.693   4.239   1.733
 1584SOL     OW 4994   3.065   4.030   0.481
 1584SOL    HW1 4995   3.136   3.968   0.466
 1584SOL    HW2 4996   3.102   4.095   0.541
 1585SOL     OW 4997   3.697   3.909   1.246
 1585SOL    HW1 4998   3.677   3.817   1.264
 1585SOL    HW2 4999   3.692   3.916   1.150
 1586SOL     OW 5000   2.299   4.152   0.527
 1586SOL    HW1 5001   2.320   4.076   0.472
 1586SOL    HW2 5002   2.241   4.118   0.595
 1587SOL     OW 5003   2.182   4.287   1.291
 1587SOL    HW1 5004   2.252   4.242   1.338
 1587SOL    HW2 5005   2.202   4.271   1.198
 1588SOL     OW 5006   3.291   3.955   1.110
 1588SOL    HW1 5007   3.320   3.880   1.162
 1588SOL    HW2 5008   3.254   4.016   1.173
 1589SOL     OW 5009   3.171   4.182   0.682
 1589SOL    HW1 5010   3.134   4.270   0.691
 1589SOL    HW2 5011   3.161   4.143   0.769
 1590SOL     OW 5012   3.447   3.924   0.877
 1590SOL    HW1 5013   3.387   3.946   0.947
 1590SOL    HW2 5014   3.449   4.002   0.822
 1591SOL     OW 5015   2.081   4.004   2.837
 1591SOL    HW1 5016   2.108   3.981   2.926
 1591SOL    HW2 5017   1.991   3.971   2.830
 1592SOL     OW 5018   1.861   4.092   2.505
 1592SOL    HW1 5019   1.782   4.122   2.550
 1592SOL    HW2 5020   1.833   4.013   2.458
 1593SOL     OW 5021   3.575   4.330   2.089
 1593SOL    HW1 5022   3.593   4.304   1.998
 1593SOL    HW2 5023   3.592   4.251   2.140
 1594SOL     OW 5024   3.481   4.170   2.603
 1594SOL    HW1 5025   3.429   4.205   2.530
 1594SOL    HW2 5026   3.495   4.245   2.660
 1595SOL     OW 5027   1.940   4.341   2.411
 1595SOL    HW1 5028   1.920   4.251   2.438
 1595SOL    HW2 5029   1.944   4.391   2.492
 1596SOL     OW 5030   2.681   3.731   2.373
 1596SOL    HW1 5031   2.718   3.817   2.353
 1596SOL    HW2 5032   2.587   3.746   2.382
 1597SOL     OW 5033   3.161   4.059   2.820
 1597SOL    HW1 5034   3.067   4.046   2.803
 1597SOL    HW2 5035   3.184   3.989   2.882
 1598SOL     OW 5036   2.925  -0.014   2.299
 1598SOL    HW1 5037   2.943   0.033   2.380
 1598SOL    HW2 5038   2.832   0.000   2.282
 1599SOL     OW 5039   1.955   0.107   2.623
 1599SOL    HW1 5040   2.034   0.126   2.675
 1599SOL    HW2 5041   1.915   0.192   2.608
 1600SOL     OW 5042   2.753   4.067   2.053
 1600SOL    HW1 5043   2.784   4.141   2.001
 1600SOL    HW2 5044   2.807   3.993   2.024
 1601SOL     OW 5045   2.411   3.901   2.749
 1601SOL    HW1 5046   2.413   3.922   2.842
 1601SOL    HW2 5047   2.412   3.986   2.705
 1602SOL     OW 5048   3.341   0.037   2.588
 1602SOL    HW1 5049   3.319  -0.003   2.672
 1602SOL    HW2 5050   3.390   0.116   2.611
 1603SOL     OW 5051   4.255   1.767   0.261
 1603SOL    HW1 5052   4.185   1.824   0.230
 1603SOL    HW2 5053   4.280   1.805   0.345
 1604SOL     OW 5054   3.259   3.835   2.298
 1604SOL    HW1 5055   3.259   3.799   2.210
 1604SOL    HW2 5056   3.350   3.861   2.313
 1605SOL     OW 5057   2.473   3.835   1.981
 1605SOL    HW1 5058   2.569   3.828   1.980
 1605SOL    HW2 5059   2.447   3.815   1.891
 1606SOL     OW 5060   2.781   4.216   2.770
 1606SOL    HW1 5061   2.752   4.196   2.681
 1606SOL    HW2 5062   2.823   4.136   2.800
 1607SOL     OW 5063   2.413   3.787   2.370
 1607SOL    HW1 5064   2.334   3.787   2.424
 1607SOL    HW2 5065   2.404   3.864   2.314
 1608SOL     OW 5066   2.160   3.775   2.045
 1608SOL    HW1 5067   2.222   3.846   2.027
 1608SOL    HW2 5068   2.210   3.710   2.094
 1609SOL     OW 5069   2.800   3.977   2.318
 1609SOL    HW1 5070   2.778   4.014   2.232
 1609SOL    HW2 5071   2.895   3.990   2.326
 1610SOL     OW 5072   2.860   4.278   1.911
 1610SOL    HW1 5073   2.865   4.362   1.865
 1610SOL    HW2 5074   2.939   4.276   1.966
 1611SOL     OW 5075   4.138   2.074   0.108
 1611SOL    HW1 5076   4.232   2.081   0.089
 1611SOL    HW2 5077   4.127   2.119   0.192
 1612SOL     OW 5078   2.416   3.931   3.019
 1612SOL    HW1 5079   2.443   3.869   3.087
 1612SOL    HW2 5080   2.332   3.965   3.048
 1613SOL     OW 5081   2.724   4.163   2.516
 1613SOL    HW1 5082   2.705   4.243   2.465
 1613SOL    HW2 5083   2.747   4.098   2.450
 1614SOL     OW 5084   2.879   3.774   2.610
 1614SOL    HW1 5085   2.818   3.768   2.536
 1614SOL    HW2 5086   2.857   3.698   2.665
 1615SOL     OW 5087   3.319   4.316   2.833
 1615SOL    HW1 5088   3.279   4.230   2.844
 1615SOL    HW2 5089   3.379   4.324   2.907
 1616SOL     OW 5090   2.379   3.983   2.184
 1616SOL    HW1 5091   2.417   3.933   2.112
 1616SOL    HW2 5092   2.396   4.075   2.161
 1617SOL     OW 5093   2.412   4.254   2.732
 1617SOL    HW1 5094   2.419   4.312   2.656
 1617SOL    HW2 5095   2.475   4.288   2.795
 1618SOL     OW 5096   3.436   4.313   2.353
 1618SOL    HW1 5097   3.392   4.375   2.411
 1618SOL    HW2 5098   3.487   4.369   2.294
 1619SOL     OW 5099   3.064   4.248   2.116
 1619SOL    HW1 5100   3.086   4.168   2.165
 1619SOL    HW2 5101   3.018   4.303   2.180
 1620SOL     OW 5102   4.341   1.755  -0.015
 1620SOL    HW1 5103   4.322   1.787   0.074
 1620SOL    HW2 5104   4.341   1.660  -0.007
 1621SOL     OW 5105   2.597   4.363   2.914
 1621SOL    HW1 5106   2.663   4.322   2.858
 1621SOL    HW2 5107   2.586   4.451   2.878
 1622SOL     OW 5108   2.164   3.789   2.486
 1622SOL    HW1 5109   2.145   3.880   2.508
 1622SOL    HW2 5110   2.173   3.745   2.571
 1623SOL     OW 5111   3.467   4.077   2.238
 1623SOL    HW1 5112   3.509   4.021   2.304
 1623SOL    HW2 5113   3.449   4.159   2.285
 1624SOL     OW 5114   3.427   3.983   1.993
 1624SOL    HW1 5115   3.349   4.025   1.956
 1624SOL    HW2 5116   3.438   4.025   2.078
 1625SOL     OW 5117   2.180   4.248   2.867
 1625SOL    HW1 5118   2.151   4.158   2.853
 1625SOL    HW2 5119   2.260   4.256   2.814
 1626SOL     OW 5120   1.892   4.274   2.946
 1626SOL    HW1 5121   1.974   4.252   2.901
 1626SOL    HW2 5122   1.915   4.270   3.039
 1627SOL     OW 5123   2.626   4.323   2.125
 1627SOL    HW1 5124   2.668   4.237   2.124
 1627SOL    HW2 5125   2.581   4.326   2.209
 1628SOL     OW 5126   3.493   4.297   3.042
 1628SOL    HW1 5127   3.504   4.260   3.130
 1628SOL    HW2 5128   3.582   4.298   3.005
 1629SOL     OW 5129   3.581   3.874   2.380
 1629SOL    HW1 5130   3.656   3.858   2.323
 1629SOL    HW2 5131   3.559   3.787   2.415
 1630SOL     OW 5132   3.694   3.890   2.858
 1630SOL    HW1 5133   3.726   3.807   2.824
 1630SOL    HW2 5134   3.609   3.903   2.815
 1631SOL     OW 5135   2.122   4.044   2.572
 1631SOL    HW1 5136   2.033   4.071   2.550
 1631SOL    HW2 5137   2.121   4.033   2.667
 1632SOL     OW 5138   2.896   3.966   2.819
 1632SOL    HW1 5139   2.888   3.917   2.737
 1632SOL    HW2 5140   2.879   3.901   2.887
 1633SOL     OW 5141   1.945   4.055   1.897
 1633SOL    HW1 5142   1.856   4.042   1.866
 1633SOL    HW2 5143   1.976   4.132   1.849
 1634SOL     OW 5144   1.929   3.877   2.171
 1634SOL    HW1 5145   1.913   3.960   2.124
 1634SOL    HW2 5146   2.015   3.849   2.141
 1635SOL     OW 5147   3.072   4.038   2.317
 1635SOL    HW1 5148   3.140   3.971   2.312
 1635SOL    HW2 5149   3.095   4.089   2.395
 1636SOL     OW 5150   2.963   0.274   1.947
 1636SOL    HW1 5151   2.972   0.348   1.887
 1636SOL    HW2 5152   3.048   0.229   1.943
 1637SOL     OW 5153   2.298   4.152   2.390
 1637SOL    HW1 5154   2.309   4.075   2.335
 1637SOL    HW2 5155   2.241   4.122   2.461
 1638SOL     OW 5156   2.861   3.750   2.993
 1638SOL    HW1 5157   2.813   3.690   2.936
 1638SOL    HW2 5158   2.930   3.695   3.032
 1639SOL     OW 5159   3.142   4.169   2.548
 1639SOL    HW1 5160   3.141   4.265   2.551
 1639SOL    HW2 5161   3.163   4.143   2.638
 1640SOL     OW 5162   3.446   3.938   2.741
 1640SOL    HW1 5163   3.352   3.951   2.758
 1640SOL    HW2 5164   3.470   4.012   2.684
 1641SOL     OW 5165   3.932   0.281   0.992
 1641SOL    HW1 5166   3.976   0.246   1.070
 1641SOL    HW2 5167   3.840   0.256   1.003
 1642SOL     OW 5168   3.729   0.381   0.654
 1642SOL    HW1 5169   3.643   0.410   0.684
 1642SOL    HW2 5170   3.710   0.322   0.580
 1643SOL     OW 5171   0.112   0.812   1.876
 1643SOL    HW1 5172   0.156   0.851   1.952
 1643SOL    HW2 5173   0.177   0.813   1.807
 1644SOL     OW 5174   4.041   1.448   1.069
 1644SOL    HW1 5175   3.981   1.391   1.021
 1644SOL    HW2 5176   4.097   1.486   1.001
 1645SOL     OW 5177   4.161   0.401   1.503
 1645SOL    HW1 5178   4.231   0.337   1.495
 1645SOL    HW2 5179   4.080   0.349   1.506
 1646SOL     OW 5180   3.937   1.714   0.458
 1646SOL    HW1 5181   3.951   1.787   0.517
 1646SOL    HW2 5182   4.018   1.707   0.408
 1647SOL     OW 5183   3.964   1.435   0.531
 1647SOL    HW1 5184   3.938   1.526   0.520
 1647SOL    HW2 5185   3.893   1.395   0.581
 1648SOL     OW 5186   3.979   1.089   0.891
 1648SOL    HW1 5187   3.973   1.003   0.931
 1648SOL    HW2 5188   3.921   1.145   0.944
 1649SOL     OW 5189   3.837   0.659   0.563
 1649SOL    HW1 5190   3.807   0.571   0.583
 1649SOL    HW2 5191   3.828   0.707   0.645
 1650SOL     OW 5192   3.844   0.744   1.583
 1650SOL    HW1 5193   3.934   0.775   1.592
 1650SOL    HW2 5194   3.790   0.823   1.588
 1651SOL     OW 5195   4.299   1.394   0.753
 1651SOL    HW1 5196   4.271   1.303   0.747
 1651SOL    HW2 5197   4.315   1.420   0.662
 1652SOL     OW 5198   3.910   0.964   1.275
 1652SOL    HW1 5199   3.992   0.921   1.254
 1652SOL    HW2 5200   3.844   0.919   1.222
 1653SOL     OW 5201   4.041   0.252   1.780
 1653SOL    HW1 5202   4.099   0.314   1.824
 1653SOL    HW2 5203   3.964   0.248   1.835
 1654SOL     OW 5204   3.808   0.824   0.777
 1654SOL    HW1 5205   3.889   0.818   0.828
 1654SOL    HW2 5206   3.763   0.900   0.813
 1655SOL     OW 5207   3.848   1.848   1.579
 1655SOL    HW1 5208   3.849   1.828   1.672
 1655SOL    HW2 5209   3.755   1.842   1.554
 1656SOL     OW 5210   0.243   0.336   0.197
 1656SOL    HW1 5211   0.320   0.390   0.180
 1656SOL    HW2 5212   0.257   0.256   0.146
 1657SOL     OW 5213   4.229   0.245   0.889
 1657SOL    HW1 5214   4.260   0.226   0.978
 1657SOL    HW2 5215   4.253   0.336   0.873
 1658SOL     OW 5216   4.080   1.816   0.862
 1658SOL    HW1 5217   4.125   1.733   0.874
 1658SOL    HW2 5218   4.148   1.882   0.874
 1659SOL     OW 5219   4.187   1.233   1.739
 1659SOL    HW1 5220   4.162   1.250   1.648
 1659SOL    HW2 5221   4.111   1.260   1.790
 1660SOL     OW 5222   3.919   0.274   1.501
 1660SOL    HW1 5223   3.838   0.324   1.491
 1660SOL    HW2 5224   3.922   0.251   1.594
 1661SOL     OW 5225   3.985   1.791   1.229
 1661SOL    HW1 5226   4.029   1.725   1.282
 1661SOL    HW2 5227   3.970   1.748   1.145
 1662SOL     OW 5228   4.103   0.701   0.467
 1662SOL    HW1 5229   4.133   0.612   0.485
 1662SOL    HW2 5230   4.011   0.702   0.493
 1663SOL     OW 5231   4.283   0.043   0.499
 1663SOL    HW1 5232   4.208   0.031   0.557
 1663SOL    HW2 5233   4.269   0.129   0.459
 1664SOL     OW 5234   0.261   0.227   0.456
 1664SOL    HW1 5235   0.235   0.292   0.391
 1664SOL    HW2 5236   0.349   0.201   0.430
 1665SOL     OW 5237   4.196   1.141   0.742
 1665SOL    HW1 5238   4.122   1.123   0.800
 1665SOL    HW2 5239   4.161   1.122   0.654
 1666SOL     OW 5240   3.808   0.554   1.390
 1666SOL    HW1 5241   3.900   0.555   1.364
 1666SOL    HW2 5242   3.801   0.624   1.455
 1667SOL     OW 5243   4.299   0.203   1.153
 1667SOL    HW1 5244   4.314   0.109   1.155
 1667SOL    HW2 5245   4.211   0.214   1.189
 1668SOL     OW 5246   4.252   0.278   0.377
 1668SOL    HW1 5247   4.316   0.230   0.325
 1668SOL    HW2 5248   4.231   0.355   0.324
 1669SOL     OW 5249   4.135   0.812   1.240
 1669SOL    HW1 5250   4.199   0.828   1.309
 1669SOL    HW2 5251   4.103   0.723   1.256
 1670SOL     OW 5252   3.796   1.572   1.353
 1670SOL    HW1 5253   3.766   1.644   1.298
 1670SOL    HW2 5254   3.891   1.575   1.348
 1671SOL     OW 5255   4.060   1.107   0.489
 1671SOL    HW1 5256   4.082   1.192   0.450
 1671SOL    HW2 5257   4.108   1.043   0.437
 1672SOL     OW 5258   4.281   0.530   0.868
 1672SOL    HW1 5259   4.278   0.605   0.808
 1672SOL    HW2 5260   4.340   0.557   0.938
 1673SOL     OW 5261   4.074   1.528   1.321
 1673SOL    HW1 5262   4.066   1.490   1.234
 1673SOL    HW2 5263   4.168   1.531   1.337
 1674SOL     OW 5264   4.133   0.751   1.602
 1674SOL    HW1 5265   4.190   0.797   1.542
 1674SOL    HW2 5266   4.164   0.660   1.601
 1675SOL     OW 5267   4.218   0.038   1.713
 1675SOL    HW1 5268   4.167  -0.022   1.659
 1675SOL    HW2 5269   4.158   0.110   1.732
 1676SOL     OW 5270   4.301   0.891   1.028
 1676SOL    HW1 5271   4.306   0.986   1.038
 1676SOL    HW2 5272   4.245   0.862   1.100
 1677SOL     OW 5273   4.029   0.197   1.241
 1677SOL    HW1 5274   3.990   0.231   1.322
 1677SOL    HW2 5275   4.024   0.102   1.251
 1678SOL     OW 5276   3.767   1.310   1.277
 1678SOL    HW1 5277   3.803   1.257   1.348
 1678SOL    HW2 5278   3.776   1.400   1.308
 1679SOL     OW 5279   4.062   0.071   0.640
 1679SOL    HW1 5280   4.043   0.161   0.664
 1679SOL    HW2 5281   4.030   0.019   0.713
 1680SOL     OW 5282   4.083   0.920   1.821
 1680SOL    HW1 5283   4.154   0.982   1.802
 1680SOL    HW2 5284   4.096   0.849   1.757
 1681SOL     OW 5285   4.029   0.808   0.945
 1681SOL    HW1 5286   4.121   0.832   0.933
 1681SOL    HW2 5287   4.031   0.719   0.979
 1682SOL     OW 5288   4.053   0.524   1.014
 1682SOL    HW1 5289   4.017   0.436   0.997
 1682SOL    HW2 5290   4.132   0.528   0.961
 1683SOL     OW 5291   3.814   1.788   0.938
 1683SOL    HW1 5292   3.783   1.708   0.894
 1683SOL    HW2 5293   3.904   1.799   0.907
 1684SOL     OW 5294   4.228   1.593   0.914
 1684SOL    HW1 5295   4.312   1.619   0.952
 1684SOL    HW2 5296   4.250   1.523   0.853
 1685SOL     OW 5297   3.760   0.539   1.117
 1685SOL    HW1 5298   3.842   0.536   1.067
 1685SOL    HW2 5299   3.788   0.546   1.208
 1686SOL     OW 5300   3.908   0.522   1.729
 1686SOL    HW1 5301   3.973   0.487   1.668
 1686SOL    HW2 5302   3.868   0.596   1.682
 1687SOL     OW 5303   0.087   0.576   0.292
 1687SOL    HW1 5304   0.127   0.489   0.291
 1687SOL    HW2 5305   0.086   0.601   0.384
 1688SOL     OW 5306   3.963   1.552   1.724
 1688SOL    HW1 5307   3.944   1.615   1.793
 1688SOL    HW2 5308   3.971   1.468   1.771
 1689SOL     OW 5309   4.187   0.476   0.223
 1689SOL    HW1 5310   4.236   0.539   0.171
 1689SOL    HW2 5311   4.103   0.520   0.241
 1690SOL     OW 5312   3.868   1.141   1.475
 1690SOL    HW1 5313   3.869   1.089   1.556
 1690SOL    HW2 5314   3.884   1.077   1.405
 1691SOL     OW 5315   3.808   1.265   1.013
 1691SOL    HW1 5316   3.793   1.280   1.106
 1691SOL    HW2 5317   3.733   1.213   0.984
 1692SOL     OW 5318   4.363   1.634   1.675
 1692SOL    HW1 5319   4.338   1.710   1.727
 1692SOL    HW2 5320   4.450   1.656   1.641
 1693SOL     OW 5321   3.858   1.800   1.845
 1693SOL    HW1 5322   3.809   1.732   1.891
 1693SOL    HW2 5323   3.907   1.846   1.913
 1694SOL     OW 5324   3.988   0.332   0.721
 1694SOL    HW1 5325   3.900   0.364   0.701
 1694SOL    HW2 5326   3.990   0.327   0.817
 1695SOL     OW 5327   4.092   1.301   1.497
 1695SOL    HW1 5328   4.078   1.379   1.444
 1695SOL    HW2 5329   4.014   1.247   1.482
 1696SOL     OW 5330   4.330   1.477   0.491
 1696SOL    HW1 5331   4.355   1.425   0.415
 1696SOL    HW2 5332   4.274   1.546   0.456
 1697SOL     OW 5333   3.837   1.016   1.719
 1697SOL    HW1 5334   3.757   0.998   1.769
 1697SOL    HW2 5335   3.908   0.981   1.773
 1698SOL     OW 5336   3.796   0.201   0.342
 1698SOL    HW1 5337   3.778   0.262   0.270
 1698SOL    HW2 5338   3.832   0.123   0.300
 1699SOL     OW 5339   4.322   0.857   1.425
 1699SOL    HW1 5340   4.360   0.941   1.399
 1699SOL    HW2 5341   4.398   0.801   1.442
 1700SOL     OW 5342   4.100   1.745   1.550
 1700SOL    HW1 5343   4.010   1.777   1.546
 1700SOL    HW2 5344   4.092   1.659   1.591
 1701SOL     OW 5345   4.260   0.736   0.689
 1701SOL    HW1 5346   4.335   0.792   0.671
 1701SOL    HW2 5347   4.209   0.737   0.608
 1702SOL     OW 5348   3.955   1.307   1.857
 1702SOL    HW1 5349   3.877   1.254   1.837
 1702SOL    HW2 5350   3.952   1.318   1.952
 1703SOL     OW 5351   3.808   1.229   0.660
 1703SOL    HW1 5352   3.816   1.188   0.745
 1703SOL    HW2 5353   3.882   1.196   0.609
 1704SOL     OW 5354   4.421   1.369   1.676
 1704SOL    HW1 5355   4.339   1.318   1.679
 1704SOL    HW2 5356   4.392   1.459   1.661
 1705SOL     OW 5357   4.159   0.452   0.555
 1705SOL    HW1 5358   4.177   0.383   0.491
 1705SOL    HW2 5359   4.097   0.412   0.616
 1706SOL     OW 5360   4.059   0.554   1.291
 1706SOL    HW1 5361   4.114   0.497   1.344
 1706SOL    HW2 5362   4.076   0.526   1.201
 1707SOL     OW 5363   3.759   1.062   0.321
 1707SOL    HW1 5364   3.843   1.094   0.356
 1707SOL    HW2 5365   3.757   0.969   0.345
 1708SOL     OW 5366   3.951   0.622   1.986
 1708SOL    HW1 5367   3.863   0.620   2.024
 1708SOL    HW2 5368   3.938   0.597   1.894
 1709SOL     OW 5369   3.928   0.283   2.854
 1709SOL    HW1 5370   3.988   0.228   2.903
 1709SOL    HW2 5371   3.841   0.253   2.880
 1710SOL     OW 5372   3.731   0.379   2.512
 1710SOL    HW1 5373   3.645   0.406   2.543
 1710SOL    HW2 5374   3.713   0.315   2.443
 1711SOL     OW 5375   4.037   1.448   2.916
 1711SOL    HW1 5376   3.998   1.389   2.852
 1711SOL    HW2 5377   4.103   1.497   2.867
 1712SOL     OW 5378   3.943   1.715   2.332
 1712SOL    HW1 5379   3.962   1.791   2.387
 1712SOL    HW2 5380   4.021   1.704   2.278
 1713SOL     OW 5381   3.952   1.440   2.391
 1713SOL    HW1 5382   3.936   1.534   2.398
 1713SOL    HW2 5383   3.894   1.402   2.458
 1714SOL     OW 5384   3.975   1.089   2.766
 1714SOL    HW1 5385   3.991   0.996   2.784
 1714SOL    HW2 5386   3.894   1.109   2.812
 1715SOL     OW 5387   3.838   0.653   2.421
 1715SOL    HW1 5388   3.810   0.564   2.445
 1715SOL    HW2 5389   3.832   0.703   2.502
 1716SOL     OW 5390   3.758   1.595   1.986
 1716SOL    HW1 5391   3.742   1.503   2.005
 1716SOL    HW2 5392   3.733   1.641   2.066
 1717SOL     OW 5393   4.299   1.398   2.610
 1717SOL    HW1 5394   4.270   1.307   2.606
 1717SOL    HW2 5395   4.313   1.423   2.518
 1718SOL     OW 5396   4.295   0.731   2.127
 1718SOL    HW1 5397   4.315   0.816   2.089
 1718SOL    HW2 5398   4.223   0.748   2.187
 1719SOL     OW 5399   3.811   0.820   2.635
 1719SOL    HW1 5400   3.892   0.811   2.685
 1719SOL    HW2 5401   3.769   0.897   2.672
 1720SOL     OW 5402   0.229   0.341   2.079
 1720SOL    HW1 5403   0.262   0.420   2.037
 1720SOL    HW2 5404   0.239   0.272   2.013
 1721SOL     OW 5405   4.223   0.240   2.803
 1721SOL    HW1 5406   4.294   0.177   2.792
 1721SOL    HW2 5407   4.251   0.317   2.754
 1722SOL     OW 5408   4.084   1.817   2.723
 1722SOL    HW1 5409   4.128   1.734   2.737
 1722SOL    HW2 5410   4.153   1.883   2.732
 1723SOL     OW 5411   4.043   0.953   2.112
 1723SOL    HW1 5412   4.083   0.980   2.030
 1723SOL    HW2 5413   4.011   0.864   2.096
 1724SOL     OW 5414   4.205   1.739   2.189
 1724SOL    HW1 5415   4.238   1.789   2.264
 1724SOL    HW2 5416   4.258   1.770   2.115
 1725SOL     OW 5417   4.099   0.692   2.320
 1725SOL    HW1 5418   4.128   0.603   2.339
 1725SOL    HW2 5419   4.007   0.693   2.344
 1726SOL     OW 5420   4.283   0.113   1.965
 1726SOL    HW1 5421   4.370   0.096   2.002
 1726SOL    HW2 5422   4.288   0.078   1.876
 1727SOL     OW 5423   4.300   0.097   2.396
 1727SOL    HW1 5424   4.214   0.068   2.426
 1727SOL    HW2 5425   4.283   0.137   2.311
 1728SOL     OW 5426   4.015   0.051   2.046
 1728SOL    HW1 5427   4.095   0.096   2.018
 1728SOL    HW2 5428   4.046  -0.016   2.107
 1729SOL     OW 5429   0.294   0.216   2.326
 1729SOL    HW1 5430   0.236   0.290   2.306
 1729SOL    HW2 5431   0.368   0.226   2.267
 1730SOL     OW 5432   4.192   1.147   2.606
 1730SOL    HW1 5433   4.118   1.127   2.664
 1730SOL    HW2 5434   4.160   1.123   2.518
 1731SOL     OW 5435   4.208   0.272   2.182
 1731SOL    HW1 5436   4.257   0.211   2.126
 1731SOL    HW2 5437   4.195   0.350   2.128
 1732SOL     OW 5438   1.949   2.995  -0.019
 1732SOL    HW1 5439   2.011   3.001   0.054
 1732SOL    HW2 5440   1.889   2.925   0.007
 1733SOL     OW 5441   1.601   3.754   0.059
 1733SOL    HW1 5442   1.588   3.849   0.064
 1733SOL    HW2 5443   1.696   3.742   0.064
 1734SOL     OW 5444   4.078   1.104   2.351
 1734SOL    HW1 5445   4.074   1.184   2.298
 1734SOL    HW2 5446   4.070   1.033   2.288
 1735SOL     OW 5447   4.283   0.526   2.725
 1735SOL    HW1 5448   4.284   0.601   2.666
 1735SOL    HW2 5449   4.341   0.552   2.797
 1736SOL     OW 5450   1.885   3.751   0.055
 1736SOL    HW1 5451   1.863   3.701  -0.024
 1736SOL    HW2 5452   1.960   3.705   0.092
 1737SOL     OW 5453   4.300   0.894   2.885
 1737SOL    HW1 5454   4.310   0.986   2.911
 1737SOL    HW2 5455   4.246   0.856   2.954
 1738SOL     OW 5456   4.055   0.072   2.492
 1738SOL    HW1 5457   4.029   0.158   2.525
 1738SOL    HW2 5458   4.041   0.013   2.566
 1739SOL     OW 5459   4.035   0.814   2.794
 1739SOL    HW1 5460   4.128   0.836   2.798
 1739SOL    HW2 5461   4.027   0.733   2.845
 1740SOL     OW 5462   4.054   0.524   2.875
 1740SOL    HW1 5463   4.017   0.438   2.861
 1740SOL    HW2 5464   4.133   0.525   2.821
 1741SOL     OW 5465   3.729   1.322   2.057
 1741SOL    HW1 5466   3.642   1.337   2.019
 1741SOL    HW2 5467   3.725   1.233   2.092
 1742SOL     OW 5468   3.814   1.792   2.791
 1742SOL    HW1 5469   3.787   1.709   2.753
 1742SOL    HW2 5470   3.907   1.799   2.770
 1743SOL     OW 5471   4.231   1.593   2.778
 1743SOL    HW1 5472   4.316   1.615   2.815
 1743SOL    HW2 5473   4.251   1.523   2.714
 1744SOL     OW 5474   3.751   0.547   3.004
 1744SOL    HW1 5475   3.825   0.532   2.946
 1744SOL    HW2 5476   3.790   0.578   3.086
 1745SOL     OW 5477   0.128   0.585   2.168
 1745SOL    HW1 5478   0.119   0.492   2.184
 1745SOL    HW2 5479   0.040   0.620   2.179
 1746SOL     OW 5480   4.193   0.496   2.028
 1746SOL    HW1 5481   4.245   0.571   2.055
 1746SOL    HW2 5482   4.104   0.530   2.021
 1747SOL     OW 5483   3.995   0.333   2.583
 1747SOL    HW1 5484   3.907   0.362   2.559
 1747SOL    HW2 5485   3.993   0.331   2.679
 1748SOL     OW 5486   4.322   1.484   2.344
 1748SOL    HW1 5487   4.334   1.424   2.271
 1748SOL    HW2 5488   4.266   1.554   2.309
 1749SOL     OW 5489   3.986   1.337   2.145
 1749SOL    HW1 5490   3.892   1.340   2.124
 1749SOL    HW2 5491   3.992   1.379   2.231
 1750SOL     OW 5492   3.797   0.330   1.897
 1750SOL    HW1 5493   3.702   0.332   1.886
 1750SOL    HW2 5494   3.829   0.403   1.844
 1751SOL     OW 5495   3.795   0.201   2.178
 1751SOL    HW1 5496   3.802   0.247   2.094
 1751SOL    HW2 5497   3.858   0.129   2.170
 1752SOL     OW 5498   2.134   2.995   0.178
 1752SOL    HW1 5499   2.162   3.084   0.200
 1752SOL    HW2 5500   2.214   2.951   0.148
 1753SOL     OW 5501   4.273   0.721   2.534
 1753SOL    HW1 5502   4.332   0.796   2.535
 1753SOL    HW2 5503   4.215   0.736   2.460
 1754SOL     OW 5504   3.808   1.234   2.529
 1754SOL    HW1 5505   3.796   1.176   2.605
 1754SOL    HW2 5506   3.881   1.194   2.481
 1755SOL     OW 5507   4.160   0.435   2.392
 1755SOL    HW1 5508   4.165   0.368   2.324
 1755SOL    HW2 5509   4.103   0.398   2.459
 1756SOL     OW 5510   1.850   2.742   0.042
 1756SOL    HW1 5511   1.915   2.686   0.082
 1756SOL    HW2 5512   1.863   2.731  -0.053
 1757SOL     OW 5513   3.764   1.071   2.169
 1757SOL    HW1 5514   3.858   1.066   2.154
 1757SOL    HW2 5515   3.738   0.982   2.190
 1758SOL     OW 5516   3.949   2.143   0.991
 1758SOL    HW1 5517   3.978   2.108   1.076
 1758SOL    HW2 5518   3.859   2.111   0.982
 1759SOL     OW 5519   3.729   2.250   0.639
 1759SOL    HW1 5520   3.646   2.275   0.679
 1759SOL    HW2 5521   3.709   2.174   0.585
 1760SOL     OW 5522   0.111   2.679   1.882
 1760SOL    HW1 5523   0.166   2.722   1.948
 1760SOL    HW2 5524   0.170   2.660   1.809
 1761SOL     OW 5525   4.017   3.340   0.986
 1761SOL    HW1 5526   4.054   3.253   0.979
 1761SOL    HW2 5527   4.091   3.399   0.973
 1762SOL     OW 5528   4.163   2.253   1.494
 1762SOL    HW1 5529   4.231   2.186   1.505
 1762SOL    HW2 5530   4.081   2.204   1.495
 1763SOL     OW 5531   3.957   3.571   0.469
 1763SOL    HW1 5532   3.969   3.648   0.525
 1763SOL    HW2 5533   4.035   3.568   0.415
 1764SOL     OW 5534   3.928   3.293   0.501
 1764SOL    HW1 5535   3.942   3.388   0.500
 1764SOL    HW2 5536   3.906   3.273   0.592
 1765SOL     OW 5537   3.827   2.502   0.557
 1765SOL    HW1 5538   3.798   2.416   0.589
 1765SOL    HW2 5539   3.827   2.557   0.636
 1766SOL     OW 5540   4.301   3.262   0.746
 1766SOL    HW1 5541   4.272   3.171   0.745
 1766SOL    HW2 5542   4.310   3.285   0.653
 1767SOL     OW 5543   4.056   2.106   1.812
 1767SOL    HW1 5544   4.090   2.195   1.817
 1767SOL    HW2 5545   3.964   2.114   1.837
 1768SOL     OW 5546   3.819   2.685   0.758
 1768SOL    HW1 5547   3.895   2.673   0.815
 1768SOL    HW2 5548   3.745   2.694   0.818
 1769SOL     OW 5549   0.227   2.193   0.187
 1769SOL    HW1 5550   0.295   2.254   0.158
 1769SOL    HW2 5551   0.256   2.108   0.155
 1770SOL     OW 5552   4.264   2.064   0.881
 1770SOL    HW1 5553   4.271   2.062   0.976
 1770SOL    HW2 5554   4.265   2.157   0.858
 1771SOL     OW 5555   4.086   3.682   0.863
 1771SOL    HW1 5556   4.138   3.603   0.873
 1771SOL    HW2 5557   4.149   3.754   0.872
 1772SOL     OW 5558   4.174   3.155   1.723
 1772SOL    HW1 5559   4.093   3.169   1.673
 1772SOL    HW2 5560   4.157   3.075   1.772
 1773SOL     OW 5561   3.921   2.132   1.485
 1773SOL    HW1 5562   3.849   2.195   1.493
 1773SOL    HW2 5563   3.899   2.063   1.548
 1774SOL     OW 5564   4.222   3.579   0.337
 1774SOL    HW1 5565   4.248   3.639   0.407
 1774SOL    HW2 5566   4.219   3.634   0.259
 1775SOL     OW 5567   4.085   2.558   0.473
 1775SOL    HW1 5568   4.109   2.473   0.508
 1775SOL    HW2 5569   3.990   2.563   0.485
 1776SOL     OW 5570   4.256   1.904   0.498
 1776SOL    HW1 5571   4.178   1.906   0.553
 1776SOL    HW2 5572   4.266   1.994   0.467
 1777SOL     OW 5573   0.255   2.120   0.447
 1777SOL    HW1 5574   0.240   2.164   0.364
 1777SOL    HW2 5575   0.336   2.070   0.434
 1778SOL     OW 5576   4.178   3.014   0.755
 1778SOL    HW1 5577   4.140   2.938   0.799
 1778SOL    HW2 5578   4.155   3.002   0.663
 1779SOL     OW 5579   3.799   2.413   1.400
 1779SOL    HW1 5580   3.891   2.419   1.375
 1779SOL    HW2 5581   3.773   2.504   1.417
 1780SOL     OW 5582   4.287   2.067   1.150
 1780SOL    HW1 5583   4.319   1.990   1.197
 1780SOL    HW2 5584   4.199   2.081   1.185
 1781SOL     OW 5585   4.244   2.154   0.350
 1781SOL    HW1 5586   4.311   2.093   0.319
 1781SOL    HW2 5587   4.268   2.238   0.310
 1782SOL     OW 5588   4.168   2.647   1.223
 1782SOL    HW1 5589   4.219   2.669   1.302
 1782SOL    HW2 5590   4.114   2.573   1.249
 1783SOL     OW 5591   4.081   2.974   0.501
 1783SOL    HW1 5592   4.060   3.039   0.434
 1783SOL    HW2 5593   4.072   2.890   0.457
 1784SOL     OW 5594   4.282   2.388   0.863
 1784SOL    HW1 5595   4.280   2.464   0.805
 1784SOL    HW2 5596   4.340   2.414   0.935
 1785SOL     OW 5597   4.234   1.921   1.700
 1785SOL    HW1 5598   4.188   1.858   1.645
 1785SOL    HW2 5599   4.165   1.979   1.733
 1786SOL     OW 5600   4.288   2.764   1.011
 1786SOL    HW1 5601   4.312   2.850   1.047
 1786SOL    HW2 5602   4.249   2.718   1.084
 1787SOL     OW 5603   4.028   2.059   1.243
 1787SOL    HW1 5604   3.985   2.091   1.322
 1787SOL    HW2 5605   4.009   1.965   1.242
 1788SOL     OW 5606   4.017   1.926   0.623
 1788SOL    HW1 5607   4.001   2.017   0.647
 1788SOL    HW2 5608   4.028   1.881   0.707
 1789SOL     OW 5609   4.026   2.669   0.931
 1789SOL    HW1 5610   4.115   2.703   0.942
 1789SOL    HW2 5611   4.026   2.586   0.979
 1790SOL     OW 5612   4.054   2.388   1.013
 1790SOL    HW1 5613   4.020   2.300   0.998
 1790SOL    HW2 5614   4.133   2.392   0.959
 1791SOL     OW 5615   3.818   3.653   0.923
 1791SOL    HW1 5616   3.792   3.569   0.886
 1791SOL    HW2 5617   3.911   3.661   0.903
 1792SOL     OW 5618   4.249   3.466   0.911
 1792SOL    HW1 5619   4.334   3.491   0.947
 1792SOL    HW2 5620   4.268   3.395   0.850
 1793SOL     OW 5621   3.764   2.410   1.116
 1793SOL    HW1 5622   3.847   2.396   1.069
 1793SOL    HW2 5623   3.789   2.408   1.208
 1794SOL     OW 5624   3.899   2.332   1.695
 1794SOL    HW1 5625   3.980   2.339   1.644
 1794SOL    HW2 5626   3.840   2.395   1.654
 1795SOL     OW 5627   0.130   2.454   0.283
 1795SOL    HW1 5628   0.156   2.376   0.333
 1795SOL    HW2 5629   0.038   2.467   0.305
 1796SOL     OW 5630  -0.026   3.519   1.657
 1796SOL    HW1 5631  -0.028   3.552   1.747
 1796SOL    HW2 5632   0.066   3.495   1.643
 1797SOL     OW 5633   3.982   2.181   0.720
 1797SOL    HW1 5634   3.894   2.212   0.700
 1797SOL    HW2 5635   3.983   2.168   0.815
 1798SOL     OW 5636   4.319   3.343   0.481
 1798SOL    HW1 5637   4.339   3.286   0.407
 1798SOL    HW2 5638   4.282   3.422   0.441
 1799SOL     OW 5639   3.777   2.035   0.335
 1799SOL    HW1 5640   3.802   2.123   0.308
 1799SOL    HW2 5641   3.829   1.977   0.281
 1800SOL     OW 5642   4.341   2.711   1.419
 1800SOL    HW1 5643   4.410   2.761   1.376
 1800SOL    HW2 5644   4.386   2.635   1.457
 1801SOL     OW 5645   4.265   2.590   0.679
 1801SOL    HW1 5646   4.338   2.651   0.674
 1801SOL    HW2 5647   4.213   2.608   0.600
 1802SOL     OW 5648   0.227   3.242   0.016
 1802SOL    HW1 5649   0.157   3.239   0.082
 1802SOL    HW2 5650   0.222   3.330  -0.020
 1803SOL     OW 5651   3.828   3.074   0.683
 1803SOL    HW1 5652   3.760   3.007   0.668
 1803SOL    HW2 5653   3.883   3.069   0.606
 1804SOL     OW 5654   4.412   3.243   1.649
 1804SOL    HW1 5655   4.328   3.204   1.675
 1804SOL    HW2 5656   4.389   3.333   1.623
 1805SOL     OW 5657   4.142   2.309   0.543
 1805SOL    HW1 5658   4.164   2.239   0.481
 1805SOL    HW2 5659   4.088   2.266   0.609
 1806SOL     OW 5660   4.048   2.412   1.294
 1806SOL    HW1 5661   4.105   2.360   1.350
 1806SOL    HW2 5662   4.070   2.385   1.205
 1807SOL     OW 5663   3.778   2.934   0.381
 1807SOL    HW1 5664   3.843   2.964   0.317
 1807SOL    HW2 5665   3.770   2.840   0.365
 1808SOL     OW 5666   3.946   2.144   2.862
 1808SOL    HW1 5667   3.965   2.104   2.947
 1808SOL    HW2 5668   3.857   2.117   2.842
 1809SOL     OW 5669   3.727   2.246   2.498
 1809SOL    HW1 5670   3.645   2.272   2.540
 1809SOL    HW2 5671   3.705   2.165   2.452
 1810SOL     OW 5672   4.041   3.309   2.934
 1810SOL    HW1 5673   3.986   3.266   2.868
 1810SOL    HW2 5674   4.109   3.353   2.884
 1811SOL     OW 5675   3.953   3.567   2.336
 1811SOL    HW1 5676   3.965   3.644   2.392
 1811SOL    HW2 5677   4.030   3.567   2.279
 1812SOL     OW 5678   3.949   3.289   2.377
 1812SOL    HW1 5679   3.949   3.385   2.375
 1812SOL    HW2 5680   3.893   3.266   2.451
 1813SOL     OW 5681   3.965   2.948   2.745
 1813SOL    HW1 5682   3.971   2.867   2.795
 1813SOL    HW2 5683   3.922   3.009   2.805
 1814SOL     OW 5684   3.838   2.511   2.419
 1814SOL    HW1 5685   3.804   2.424   2.442
 1814SOL    HW2 5686   3.830   2.562   2.500
 1815SOL     OW 5687   4.305   3.251   2.611
 1815SOL    HW1 5688   4.274   3.160   2.605
 1815SOL    HW2 5689   4.310   3.281   2.520
 1816SOL     OW 5690   4.305   2.583   2.120
 1816SOL    HW1 5691   4.336   2.660   2.073
 1816SOL    HW2 5692   4.237   2.616   2.178
 1817SOL     OW 5693   3.817   2.679   2.636
 1817SOL    HW1 5694   3.897   2.676   2.690
 1817SOL    HW2 5695   3.769   2.754   2.669
 1818SOL     OW 5696   0.211   2.204   2.076
 1818SOL    HW1 5697   0.257   2.278   2.036
 1818SOL    HW2 5698   0.206   2.138   2.006
 1819SOL     OW 5699   4.261   2.053   2.757
 1819SOL    HW1 5700   4.275   2.085   2.846
 1819SOL    HW2 5701   4.272   2.130   2.701
 1820SOL     OW 5702   4.073   3.664   2.725
 1820SOL    HW1 5703   4.121   3.582   2.738
 1820SOL    HW2 5704   4.139   3.732   2.736
 1821SOL     OW 5705   4.119   2.788   2.133
 1821SOL    HW1 5706   4.136   2.818   2.043
 1821SOL    HW2 5707   4.059   2.714   2.122
 1822SOL     OW 5708   4.210   3.591   2.183
 1822SOL    HW1 5709   4.233   3.647   2.257
 1822SOL    HW2 5710   4.258   3.629   2.109
 1823SOL     OW 5711   3.999   3.665   3.052
 1823SOL    HW1 5712   4.035   3.594   3.105
 1823SOL    HW2 5713   3.980   3.625   2.967
 1824SOL     OW 5714   4.099   2.545   2.321
 1824SOL    HW1 5715   4.127   2.456   2.346
 1824SOL    HW2 5716   4.007   2.549   2.349
 1825SOL     OW 5717   4.277   1.959   1.970
 1825SOL    HW1 5718   4.365   1.956   2.007
 1825SOL    HW2 5719   4.290   1.944   1.876
 1826SOL     OW 5720   4.264   1.922   2.381
 1826SOL    HW1 5721   4.176   1.932   2.419
 1826SOL    HW2 5722   4.270   1.993   2.317
 1827SOL     OW 5723   4.014   1.909   2.049
 1827SOL    HW1 5724   4.078   1.959   2.000
 1827SOL    HW2 5725   4.065   1.842   2.094
 1828SOL     OW 5726   0.277   2.111   2.314
 1828SOL    HW1 5727   0.242   2.169   2.247
 1828SOL    HW2 5728   0.363   2.086   2.282
 1829SOL     OW 5729   4.196   2.997   2.612
 1829SOL    HW1 5730   4.117   2.984   2.664
 1829SOL    HW2 5731   4.170   2.976   2.522
 1830SOL     OW 5732   4.222   2.132   2.187
 1830SOL    HW1 5733   4.248   2.064   2.124
 1830SOL    HW2 5734   4.211   2.210   2.133
 1831SOL     OW 5735   4.085   2.955   2.365
 1831SOL    HW1 5736   4.089   3.039   2.319
 1831SOL    HW2 5737   4.093   2.889   2.296
 1832SOL     OW 5738   4.269   2.396   2.728
 1832SOL    HW1 5739   4.280   2.467   2.665
 1832SOL    HW2 5740   4.338   2.409   2.793
 1833SOL     OW 5741   4.293   2.770   2.958
 1833SOL    HW1 5742   4.339   2.816   2.888
 1833SOL    HW2 5743   4.200   2.780   2.935
 1834SOL     OW 5744   4.014   1.930   2.486
 1834SOL    HW1 5745   3.997   2.020   2.511
 1834SOL    HW2 5746   4.027   1.883   2.569
 1835SOL     OW 5747   4.042   2.675   2.816
 1835SOL    HW1 5748   4.124   2.670   2.767
 1835SOL    HW2 5749   4.025   2.585   2.845
 1836SOL     OW 5750   4.043   2.397   2.873
 1836SOL    HW1 5751   4.011   2.307   2.865
 1836SOL    HW2 5752   4.124   2.398   2.822
 1837SOL     OW 5753   3.810   3.648   2.798
 1837SOL    HW1 5754   3.783   3.567   2.754
 1837SOL    HW2 5755   3.900   3.663   2.769
 1838SOL     OW 5756   4.232   3.445   2.782
 1838SOL    HW1 5757   4.314   3.486   2.812
 1838SOL    HW2 5758   4.259   3.379   2.718
 1839SOL     OW 5759   3.773   2.416   2.970
 1839SOL    HW1 5760   3.862   2.404   2.937
 1839SOL    HW2 5761   3.784   2.432   3.064
 1840SOL     OW 5762   0.134   2.446   2.175
 1840SOL    HW1 5763   0.121   2.351   2.176
 1840SOL    HW2 5764   0.045   2.482   2.180
 1841SOL     OW 5765   4.190   2.355   2.035
 1841SOL    HW1 5766   4.246   2.430   2.056
 1841SOL    HW2 5767   4.101   2.387   2.051
 1842SOL     OW 5768   3.801   3.129   2.870
 1842SOL    HW1 5769   3.793   3.142   2.965
 1842SOL    HW2 5770   3.731   3.068   2.848
 1843SOL     OW 5771   3.982   2.182   2.581
 1843SOL    HW1 5772   3.894   2.214   2.560
 1843SOL    HW2 5773   3.982   2.172   2.677
 1844SOL     OW 5774   4.314   3.340   2.348
 1844SOL    HW1 5775   4.343   3.296   2.268
 1844SOL    HW2 5776   4.269   3.419   2.317
 1845SOL     OW 5777   3.791   2.200   1.905
 1845SOL    HW1 5778   3.710   2.163   1.868
 1845SOL    HW2 5779   3.825   2.256   1.835
 1846SOL     OW 5780   3.791   2.020   2.170
 1846SOL    HW1 5781   3.776   2.097   2.115
 1846SOL    HW2 5782   3.876   1.987   2.141
 1847SOL     OW 5783   4.259   2.595   2.543
 1847SOL    HW1 5784   4.331   2.657   2.536
 1847SOL    HW2 5785   4.214   2.601   2.458
 1848SOL     OW 5786   3.811   3.089   2.534
 1848SOL    HW1 5787   3.828   3.046   2.618
 1848SOL    HW2 5788   3.884   3.064   2.478
 1849SOL     OW 5789   4.157   2.291   2.400
 1849SOL    HW1 5790   4.167   2.226   2.331
 1849SOL    HW2 5791   4.095   2.252   2.461
 1850SOL     OW 5792   3.942   4.007   0.974
 1850SOL    HW1 5793   3.975   3.986   1.062
 1850SOL    HW2 5794   3.853   3.973   0.973
 1851SOL     OW 5795   3.721   4.088   0.649
 1851SOL    HW1 5796   3.640   4.120   0.689
 1851SOL    HW2 5797   3.695   4.010   0.599
 1852SOL     OW 5798   4.162   4.125   1.483
 1852SOL    HW1 5799   4.231   4.065   1.513
 1852SOL    HW2 5800   4.081   4.079   1.502
 1853SOL     OW 5801   3.788   4.329   0.535
 1853SOL    HW1 5802   3.778   4.245   0.579
 1853SOL    HW2 5803   3.832   4.385   0.599
 1854SOL     OW 5804   4.045   3.990   1.798
 1854SOL    HW1 5805   4.084   4.076   1.815
 1854SOL    HW2 5806   3.959   3.995   1.839
 1855SOL     OW 5807   3.811   0.106   0.769
 1855SOL    HW1 5808   3.887   0.139   0.818
 1855SOL    HW2 5809   3.767   0.185   0.737
 1856SOL     OW 5810   0.245   4.052   0.192
 1856SOL    HW1 5811   0.296   4.130   0.169
 1856SOL    HW2 5812   0.186   4.040   0.118
 1857SOL     OW 5813   4.254   3.910   0.882
 1857SOL    HW1 5814   4.270   3.930   0.974
 1857SOL    HW2 5815   4.277   3.991   0.836
 1858SOL     OW 5816   3.909   4.024   1.504
 1858SOL    HW1 5817   3.825   4.056   1.472
 1858SOL    HW2 5818   3.887   3.969   1.579
 1859SOL     OW 5819   4.260   3.779   0.513
 1859SOL    HW1 5820   4.176   3.792   0.556
 1859SOL    HW2 5821   4.269   3.854   0.453
 1860SOL     OW 5822   0.271   3.982   0.451
 1860SOL    HW1 5823   0.247   4.018   0.366
 1860SOL    HW2 5824   0.356   3.941   0.437
 1861SOL     OW 5825   3.812   4.291   1.403
 1861SOL    HW1 5826   3.902   4.291   1.371
 1861SOL    HW2 5827   3.795   4.383   1.425
 1862SOL     OW 5828   4.294   3.939   1.148
 1862SOL    HW1 5829   4.319   3.860   1.197
 1862SOL    HW2 5830   4.207   3.961   1.182
 1863SOL     OW 5831   4.199   4.002   0.298
 1863SOL    HW1 5832   4.282   3.955   0.287
 1863SOL    HW2 5833   4.220   4.093   0.275
 1864SOL     OW 5834   4.281   4.281   0.874
 1864SOL    HW1 5835   4.312   4.352   0.818
 1864SOL    HW2 5836   4.340   4.281   0.949
 1865SOL     OW 5837   4.023   3.960   1.229
 1865SOL    HW1 5838   3.988   4.003   1.308
 1865SOL    HW2 5839   3.977   3.876   1.226
 1866SOL     OW 5840   4.012   3.790   0.625
 1866SOL    HW1 5841   3.998   3.882   0.646
 1866SOL    HW2 5842   4.028   3.748   0.709
 1867SOL     OW 5843   4.055   4.246   1.018
 1867SOL    HW1 5844   4.023   4.161   0.988
 1867SOL    HW2 5845   4.131   4.264   0.964
 1868SOL     OW 5846   3.767   4.271   1.111
 1868SOL    HW1 5847   3.850   4.259   1.064
 1868SOL    HW2 5848   3.793   4.267   1.204
 1869SOL     OW 5849   3.920   4.257   1.700
 1869SOL    HW1 5850   3.948   4.202   1.627
 1869SOL    HW2 5851   3.839   4.297   1.670
 1870SOL     OW 5852   0.146   4.298   0.293
 1870SOL    HW1 5853   0.158   4.204   0.302
 1870SOL    HW2 5854   0.083   4.321   0.361
 1871SOL     OW 5855   3.980   4.047   0.711
 1871SOL    HW1 5856   3.889   4.069   0.691
 1871SOL    HW2 5857   3.981   4.033   0.806
 1872SOL     OW 5858   1.553   1.925   3.104
 1872SOL    HW1 5859   1.499   1.846   3.101
 1872SOL    HW2 5860   1.628   1.906   3.048
 1873SOL     OW 5861   4.329   0.194   1.437
 1873SOL    HW1 5862   4.369   0.230   1.358
 1873SOL    HW2 5863   4.345   0.099   1.431
 1874SOL     OW 5864   4.169   4.136   0.541
 1874SOL    HW1 5865   4.148   4.091   0.459
 1874SOL    HW2 5866   4.096   4.115   0.599
 1875SOL     OW 5867   4.053   4.295   1.287
 1875SOL    HW1 5868   4.112   4.240   1.338
 1875SOL    HW2 5869   4.069   4.270   1.196
 1876SOL     OW 5870   3.934   4.015   2.842
 1876SOL    HW1 5871   3.969   3.983   2.926
 1876SOL    HW2 5872   3.845   3.982   2.840
 1877SOL     OW 5873   3.726   4.088   2.507
 1877SOL    HW1 5874   3.645   4.121   2.547
 1877SOL    HW2 5875   3.698   4.009   2.460
 1878SOL     OW 5876   3.769   4.345   2.408
 1878SOL    HW1 5877   3.778   4.254   2.436
 1878SOL    HW2 5878   3.824   4.394   2.469
 1879SOL     OW 5879   3.810   0.112   2.640
 1879SOL    HW1 5880   3.884   0.136   2.695
 1879SOL    HW2 5881   3.766   0.194   2.620
 1880SOL     OW 5882   0.278   4.075   2.044
 1880SOL    HW1 5883   0.228   4.156   2.044
 1880SOL    HW2 5884   0.216   4.007   2.017
 1881SOL     OW 5885   4.282   3.825   1.954
 1881SOL    HW1 5886   4.360   3.832   2.008
 1881SOL    HW2 5887   4.314   3.806   1.866
 1882SOL     OW 5888   4.263   3.779   2.360
 1882SOL    HW1 5889   4.212   3.786   2.440
 1882SOL    HW2 5890   4.250   3.863   2.316
 1883SOL     OW 5891   4.020   3.778   2.067
 1883SOL    HW1 5892   4.082   3.822   2.008
 1883SOL    HW2 5893   4.069   3.706   2.105
 1884SOL     OW 5894   0.262   3.983   2.299
 1884SOL    HW1 5895   0.270   4.028   2.215
 1884SOL    HW2 5896   0.341   3.930   2.306
 1885SOL     OW 5897   4.308   3.958   3.069
 1885SOL    HW1 5898   4.333   3.883   3.014
 1885SOL    HW2 5899   4.223   3.985   3.035
 1886SOL     OW 5900   4.226   3.992   2.185
 1886SOL    HW1 5901   4.244   3.939   2.108
 1886SOL    HW2 5902   4.237   4.083   2.156
 1887SOL     OW 5903   4.280   4.298   2.724
 1887SOL    HW1 5904   4.327   4.362   2.670
 1887SOL    HW2 5905   4.334   4.288   2.802
 1888SOL     OW 5906   1.811   1.739  -0.015
 1888SOL    HW1 5907   1.863   1.751   0.064
 1888SOL    HW2 5908   1.811   1.644  -0.030
 1889SOL     OW 5909   4.009   3.785   2.490
 1889SOL    HW1 5910   4.002   3.879   2.510
 1889SOL    HW2 5911   4.027   3.744   2.574
 1890SOL     OW 5912   4.051   4.256   2.881
 1890SOL    HW1 5913   4.019   4.168   2.860
 1890SOL    HW2 5914   4.127   4.268   2.824
 1891SOL     OW 5915   3.761   4.270   2.970
 1891SOL    HW1 5916   3.847   4.246   2.935
 1891SOL    HW2 5917   3.778   4.292   3.062
 1892SOL     OW 5918   0.103   4.255   2.153
 1892SOL    HW1 5919   0.140   4.214   2.231
 1892SOL    HW2 5920   0.058   4.333   2.185
 1893SOL     OW 5921   3.986   4.046   2.574
 1893SOL    HW1 5922   3.895   4.069   2.557
 1893SOL    HW2 5923   3.990   4.034   2.669
 1894SOL     OW 5924   3.804   4.088   1.895
 1894SOL    HW1 5925   3.716   4.071   1.862
 1894SOL    HW2 5926   3.835   4.165   1.847
 1895SOL     OW 5927   3.795   3.886   2.196
 1895SOL    HW1 5928   3.783   3.968   2.147
 1895SOL    HW2 5929   3.880   3.853   2.166
 1896SOL     OW 5930   4.134   4.164   2.377
 1896SOL    HW1 5931   4.156   4.085   2.327
 1896SOL    HW2 5932   4.088   4.131   2.454
 1897CL      CL 5933   4.325   3.860   2.730
   4.39229   4.39229   3.10582   0.00000   0.00000   0.00000   0.00000   2.19615   2.19615
