TC5B in water
 5933
    1ASN      N    1   2.365   3.733   1.487  0.2506  0.5725  0.3549
    1ASN     H1    2   2.381   3.823   1.445  1.6815  0.6178  0.9184
    1ASN     H2    3   2.265   3.724   1.493  0.2549 -0.4893 -0.6934
    1ASN     H3    4   2.409   3.722   1.577 -0.4914 -0.1168  0.6418
    1ASN     CA    5   2.412   3.631   1.386  0.4294 -0.3645  0.2973
    1ASN     HA    6   2.363   3.539   1.419  1.1842 -1.1455 -0.6889
    1ASN     CB    7   2.340   3.644   1.250  0.4751 -0.0201 -0.1893
    1ASN    HB1    8   2.350   3.557   1.185  1.3984 -1.0356  1.2589
    1ASN    HB2    9   2.385   3.730   1.200 -0.6964  0.3783 -0.5875
    1ASN     CG   10   2.194   3.671   1.258  0.6993  0.8875  0.4530
    1ASN    OD1   11   2.130   3.599   1.335 -0.4611  0.0624 -0.4735
    1ASN    ND2   12   2.127   3.749   1.175 -0.9364 -0.0217  0.2085
    1ASN   HD21   13   2.177   3.803   1.106 -1.2574 -2.7378 -2.3461
    1ASN   HD22   14   2.028   3.763   1.184 -0.9081  0.8094 -0.6087
    1ASN      C   15   2.559   3.613   1.373  0.5926  0.0354 -1.5302
    1ASN      O   16   2.595   3.498   1.378 -0.1892 -0.1321 -0.4993
    2LEU      N   17   2.639   3.716   1.356  0.1539 -0.2202  0.2551
    2LEU      H   18   2.604   3.809   1.338  0.6366 -0.5335 -2.8869
    2LEU     CA   19   2.776   3.699   1.317  0.2301 -1.0910 -0.6001
    2LEU     HA   20   2.778   3.637   1.227 -1.9831  0.9707 -2.1727
    2LEU     CB   21   2.834   3.830   1.260 -0.0170  0.5576 -1.0203
    2LEU    HB1   22   2.768   3.848   1.175 -1.1876 -1.7910 -0.6997
    2LEU    HB2   23   2.938   3.805   1.241 -0.0280  1.1434 -1.8655
    2LEU     CG   24   2.830   3.950   1.351 -0.1391 -0.0550  0.0115
    2LEU     HG   25   2.736   3.947   1.406  0.1454  0.8356  0.5816
    2LEU    CD1   26   2.944   3.957   1.452 -0.1001 -0.0639  0.3560
    2LEU   HD11   27   3.029   3.973   1.386 -0.3136 -0.9688 -0.1482
    2LEU   HD12   28   2.932   4.040   1.522  0.1515  1.7315 -1.6346
    2LEU   HD13   29   2.955   3.858   1.497 -0.9624 -0.5974 -0.5863
    2LEU    CD2   30   2.834   4.071   1.260  0.3321  0.0316 -0.0658
    2LEU   HD21   31   2.910   4.061   1.182  0.8187 -2.4410  0.6383
    2LEU   HD22   32   2.735   4.082   1.217  0.1553  1.4091  0.6193
    2LEU   HD23   33   2.863   4.163   1.312 -0.7898  0.4588 -0.1709
    2LEU      C   34   2.863   3.633   1.422  0.2311 -0.6024 -0.2308
    2LEU      O   35   2.960   3.569   1.391 -0.6130 -0.1293 -0.9968
    3TYR      N   36   2.837   3.653   1.551 -0.2945 -0.1002 -0.1104
    3TYR      H   37   2.755   3.709   1.569  0.1449  0.3825  0.4212
    3TYR     CA   38   2.908   3.587   1.663  0.9513 -0.4243 -0.0558
    3TYR     HA   39   3.015   3.595   1.642  0.6320 -2.5162 -3.0962
    3TYR     CB   40   2.886   3.669   1.799  0.6279 -0.5391 -0.5123
    3TYR    HB1   41   2.798   3.635   1.853 -0.7495  0.2554 -2.1699
    3TYR    HB2   42   2.879   3.774   1.771  2.1966 -0.1944  0.2686
    3TYR     CG   43   3.012   3.663   1.892  0.3882  0.1189 -0.8325
    3TYR    CD1   44   3.010   3.562   1.994 -0.0808 -0.9897  0.5752
    3TYR    HD1   45   2.926   3.494   2.003 -0.1691 -0.9648 -0.0079
    3TYR    CE1   46   3.128   3.549   2.072 -0.1493 -0.2334  0.1143
    3TYR    HE1   47   3.126   3.472   2.148 -1.0637 -1.6399 -1.2572
    3TYR     CZ   48   3.233   3.645   2.067  0.1497 -0.3442 -0.5533
    3TYR     OH   49   3.343   3.643   2.149  0.4102  0.2090  0.2767
    3TYR     HH   50   3.395   3.719   2.121 -0.5047  0.0144 -2.2064
    3TYR    CE2   51   3.221   3.747   1.972 -0.6581  0.5634 -0.2267
    3TYR    HE2   52   3.300   3.820   1.960  1.0170 -1.1811 -0.2522
    3TYR    CD2   53   3.115   3.753   1.884 -0.7620 -0.0009 -0.3064
    3TYR    HD2   54   3.106   3.839   1.819  0.2367 -0.2092 -0.7464
    3TYR      C   55   2.872   3.440   1.680  0.6660 -0.4272  0.9605
    3TYR      O   56   2.961   3.356   1.704  0.1324  0.1522  0.0846
    4ILE      N   57   2.745   3.393   1.640  0.2760 -0.0414 -0.4146
    4ILE      H   58   2.676   3.465   1.620 -0.4051 -0.0213  1.7585
    4ILE     CA   59   2.705   3.250   1.636 -0.4777  0.9502 -0.4500
    4ILE     HA   60   2.730   3.206   1.733  1.5410  0.6366 -1.0647
    4ILE     CB   61   2.555   3.218   1.608  0.5512 -0.7155  0.1172
    4ILE     HB   62   2.534   3.231   1.502  1.5123 -0.8296 -0.1001
    4ILE    CG2   63   2.506   3.077   1.641 -0.0826  0.4635 -0.1573
    4ILE   HG21   64   2.481   3.067   1.747  0.0027  1.3946 -0.0399
    4ILE   HG22   65   2.408   3.061   1.595 -0.5388  1.6402  0.3534
    4ILE   HG23   66   2.576   3.001   1.608 -1.0039 -0.6176  0.2984
    4ILE    CG1   67   2.452   3.321   1.672  0.3850  0.0642  0.7644
    4ILE   HG11   68   2.356   3.277   1.648  1.8143 -2.9661  0.1513
    4ILE   HG12   69   2.449   3.411   1.611 -0.2094 -0.9272 -0.7159
    4ILE     CD   70   2.471   3.337   1.821  0.3534  0.1405 -0.0569
    4ILE    HD1   71   2.566   3.386   1.840 -1.1047  3.8856 -1.5263
    4ILE    HD2   72   2.391   3.398   1.864  1.0739  1.0105  0.0708
    4ILE    HD3   73   2.473   3.237   1.865 -0.5452  0.9436  1.9340
    4ILE      C   74   2.783   3.178   1.524 -0.2425  0.4647 -0.6121
    4ILE      O   75   2.843   3.072   1.539  0.3676 -0.2131 -0.8103
    5GLN      N   76   2.796   3.235   1.408 -0.5250 -0.1701 -0.2147
    5GLN      H   77   2.745   3.323   1.409 -1.8415 -0.9148  0.5688
    5GLN     CA   78   2.866   3.193   1.287 -0.2646 -0.1123  0.6482
    5GLN     HA   79   2.828   3.097   1.252 -0.3732 -0.3388  1.3734
    5GLN     CB   80   2.847   3.289   1.166  0.2243  0.5021 -0.2645
    5GLN    HB1   81   2.919   3.370   1.166 -0.3605  1.0374 -0.0765
    5GLN    HB2   82   2.750   3.339   1.165 -0.4845 -0.8090 -1.4919
    5GLN     CG   83   2.860   3.217   1.035  0.4772 -0.3874 -0.7094
    5GLN    HG1   84   2.944   3.148   1.028 -0.3491 -1.6581  1.0453
    5GLN    HG2   85   2.890   3.291   0.960  0.3629 -1.9750 -2.3915
    5GLN     CD   86   2.732   3.149   0.998  0.1633 -0.8003 -0.0346
    5GLN    OE1   87   2.706   3.034   1.033 -0.4080 -0.3666 -0.4618
    5GLN    NE2   88   2.641   3.213   0.920  0.0952 -0.3527 -0.2984
    5GLN   HE21   89   2.659   3.295   0.864 -1.6169 -0.6078 -1.2962
    5GLN   HE22   90   2.558   3.159   0.899 -0.2992 -0.0668  0.4767
    5GLN      C   91   3.021   3.183   1.317 -0.3190  0.2299  0.4647
    5GLN      O   92   3.091   3.091   1.268 -0.2851  0.2228  0.4660
    6TRP      N   93   3.084   3.262   1.405  0.0039  0.1518  0.5634
    6TRP      H   94   3.026   3.333   1.448  0.1331  0.3031  0.4878
    6TRP     CA   95   3.222   3.236   1.448  0.0022 -0.3287 -0.4602
    6TRP     HA   96   3.287   3.215   1.364 -1.0106  0.7140 -1.5506
    6TRP     CB   97   3.266   3.368   1.523 -0.1483  0.6193 -0.9853
    6TRP    HB1   98   3.204   3.378   1.612 -0.9526 -3.2180 -0.9243
    6TRP    HB2   99   3.253   3.456   1.461 -1.4521  2.0516  1.1739
    6TRP     CG  100   3.403   3.366   1.581  0.5326  0.4719 -0.2334
    6TRP    CD1  101   3.516   3.360   1.506 -0.1281 -0.4584 -0.0532
    6TRP    HD1  102   3.508   3.346   1.399  0.0957  2.2497 -0.4984
    6TRP    NE1  103   3.626   3.375   1.592 -0.6693  0.4389  0.1905
    6TRP    HE1  104   3.722   3.357   1.567 -1.5740 -0.2316 -3.3199
    6TRP    CE2  105   3.588   3.367   1.721 -0.0344  0.4412  0.1363
    6TRP    CZ2  106   3.659   3.371   1.844  0.1151 -0.2532  0.4936
    6TRP    HZ2  107   3.767   3.372   1.849  0.1044 -2.0937  2.7666
    6TRP    CH2  108   3.588   3.368   1.961  0.6457 -0.3401  0.4162
    6TRP    HH2  109   3.647   3.378   2.051 -0.4644  0.1519  1.1071
    6TRP    CZ3  110   3.451   3.376   1.960  0.8561  0.1056  0.2870
    6TRP    HZ3  111   3.393   3.380   2.051  1.2887 -0.2951  0.5815
    6TRP    CE3  112   3.382   3.373   1.839  0.9869  0.5987 -0.1830
    6TRP    HE3  113   3.274   3.368   1.830  1.1222  1.2126 -3.0036
    6TRP    CD2  114   3.446   3.374   1.718  0.4190  0.8393  0.2912
    6TRP      C  115   3.226   3.118   1.549  0.1281  0.3830 -0.2161
    6TRP      O  116   3.300   3.018   1.519  0.7535 -0.0128 -0.4201
    7LEU      N  117   3.133   3.111   1.641 -0.2853  0.0768  0.1228
    7LEU      H  118   3.062   3.183   1.639  0.4727  0.8770  1.0134
    7LEU     CA  119   3.128   3.009   1.749 -0.0094 -0.8952  0.4707
    7LEU     HA  120   3.227   3.016   1.794 -0.7259  0.2840  1.9564
    7LEU     CB  121   3.027   3.056   1.856  0.1471 -0.9338  0.2824
    7LEU    HB1  122   3.012   2.966   1.915  0.0981 -1.5964 -0.7155
    7LEU    HB2  123   2.934   3.083   1.807 -0.8239 -2.1478  1.3688
    7LEU     CG  124   3.068   3.174   1.946 -0.1997 -0.2244  0.1759
    7LEU     HG  125   3.092   3.259   1.881 -2.6813 -1.3935 -2.5009
    7LEU    CD1  126   2.956   3.211   2.045 -0.2821 -0.1514  0.3822
    7LEU   HD11  127   2.973   3.300   2.106 -1.4142 -0.3030  0.9395
    7LEU   HD12  128   2.869   3.231   1.983  0.0238 -2.6555 -0.9916
    7LEU   HD13  129   2.924   3.138   2.119 -0.0206 -0.3253  0.3268
    7LEU    CD2  130   3.191   3.136   2.032  0.1533  1.1375  0.3353
    7LEU   HD21  131   3.274   3.122   1.963  1.2135  2.1930  1.3322
    7LEU   HD22  132   3.216   3.221   2.097  2.0405  0.8082  0.0987
    7LEU   HD23  133   3.165   3.049   2.092 -0.1289  0.6393 -0.5051
    7LEU      C  134   3.103   2.862   1.705  0.2404  0.8177  0.2013
    7LEU      O  135   3.163   2.768   1.751 -0.0522  0.0554 -0.0582
    8LYS      N  136   3.019   2.838   1.601 -0.7475 -0.4942 -0.4360
    8LYS      H  137   2.976   2.920   1.560 -2.4144 -1.7855 -1.3680
    8LYS     CA  138   2.993   2.715   1.537  0.7293 -0.0023  0.2621
    8LYS     HA  139   2.975   2.640   1.614  1.1131  0.5519  0.9004
    8LYS     CB  140   2.867   2.717   1.440  0.5424 -0.2413  0.6769
    8LYS    HB1  141   2.774   2.751   1.487 -0.1784 -0.6777 -0.4121
    8LYS    HB2  142   2.848   2.614   1.412 -0.8811  0.2412 -0.2611
    8LYS     CG  143   2.883   2.809   1.322 -0.4755 -0.1413  0.2730
    8LYS    HG1  144   2.960   2.883   1.346  0.4343 -0.9211 -0.1534
    8LYS    HG2  145   2.793   2.863   1.294  0.5464  0.8418 -1.3024
    8LYS     CD  146   2.929   2.737   1.193  0.0919 -0.3056 -0.5493
    8LYS    HD1  147   2.883   2.640   1.175 -0.2855  0.1433 -2.1682
    8LYS    HD2  148   3.035   2.712   1.203  0.2205  0.9851  2.3877
    8LYS     CE  149   2.913   2.811   1.064  0.2274 -0.7140 -0.4765
    8LYS    HE1  150   2.941   2.915   1.079  2.2967 -1.4879  1.7025
    8LYS    HE2  151   2.808   2.817   1.038  0.0817 -0.3525  0.1715
    8LYS     NZ  152   2.987   2.744   0.952 -0.4920 -0.1581  0.3734
    8LYS    HZ1  153   2.940   2.664   0.913  1.9714 -0.8210 -1.5127
    8LYS    HZ2  154   3.000   2.807   0.875  2.9229 -0.1543  0.7650
    8LYS    HZ3  155   3.082   2.722   0.980 -0.4983  2.3392  2.7969
    8LYS      C  156   3.116   2.654   1.468 -0.0319 -0.1762 -0.3284
    8LYS      O  157   3.106   2.533   1.459 -0.0898 -0.5417  0.2708
    9ASP      N  158   3.214   2.731   1.416 -0.3916  1.2115 -0.2781
    9ASP      H  159   3.220   2.827   1.448 -0.5156  1.4997 -1.1009
    9ASP     CA  160   3.331   2.672   1.351  0.6575 -0.2476 -0.2996
    9ASP     HA  161   3.304   2.587   1.287 -0.6571  0.6786 -1.0156
    9ASP     CB  162   3.383   2.778   1.260  0.7131  0.1197  0.2053
    9ASP    HB1  163   3.487   2.760   1.234  0.7983  0.5167  0.2622
    9ASP    HB2  164   3.381   2.878   1.303  1.8080  1.0709 -1.8027
    9ASP     CG  165   3.313   2.786   1.118 -0.0237  0.3163 -0.6222
    9ASP    OD1  166   3.238   2.695   1.078  0.5422  0.2735 -0.1256
    9ASP    OD2  167   3.350   2.876   1.041  0.0039 -0.3323 -0.1245
    9ASP      C  168   3.443   2.626   1.447 -0.1605 -0.6068  0.3636
    9ASP      O  169   3.550   2.575   1.409 -0.1808  0.3248  0.2354
   10GLY      N  170   3.425   2.669   1.577  0.1330 -0.0424 -0.3675
   10GLY      H  171   3.352   2.737   1.594  1.0690  0.6476  1.1526
   10GLY     CA  172   3.512   2.631   1.684 -0.1028 -0.4634  0.0867
   10GLY    HA1  173   3.600   2.586   1.636 -0.1878  0.8430 -1.3705
   10GLY    HA2  174   3.464   2.555   1.746  0.1510 -0.7113 -0.0136
   10GLY      C  175   3.571   2.751   1.759 -0.2660  0.4454  0.1249
   10GLY      O  176   3.640   2.731   1.860  0.1888  0.1598  0.0458
   11GLY      N  177   3.522   2.871   1.725 -0.3199 -0.3179  0.1798
   11GLY      H  178   3.451   2.879   1.654  2.1254  0.1914 -2.4285
   11GLY     CA  179   3.566   2.999   1.785 -0.8348 -0.0199 -0.7556
   11GLY    HA1  180   3.519   3.015   1.882  2.0695  0.7182  0.6213
   11GLY    HA2  181   3.524   3.084   1.732  1.8483  3.1073  1.7893
   11GLY      C  182   3.719   3.016   1.791  0.1236 -0.0811  0.1151
   11GLY      O  183   3.783   2.999   1.688  0.0750 -0.2262 -0.2576
   12PRO      N  184   3.779   3.039   1.907 -0.1932 -0.2002 -0.0182
   12PRO     CD  185   3.723   3.054   2.038 -0.0039  0.0087  0.2914
   12PRO    HD1  186   3.641   2.983   2.050 -0.8299  0.6122 -1.4444
   12PRO    HD2  187   3.681   3.154   2.051  2.1006  0.8128  1.4513
   12PRO     CG  188   3.842   3.036   2.130  0.0938  0.2238  0.1567
   12PRO    HG1  189   3.861   2.930   2.146  0.3806  0.0235 -1.3027
   12PRO    HG2  190   3.827   3.075   2.230 -0.7979 -0.7664  0.4225
   12PRO     CB  191   3.961   3.095   2.057 -0.1174 -0.0943  0.6105
   12PRO    HB1  192   4.046   3.036   2.094 -0.9077 -4.4126 -3.5202
   12PRO    HB2  193   3.960   3.204   2.064 -3.6607 -0.0033  0.2723
   12PRO     CA  194   3.929   3.058   1.917  0.1235  1.1403  0.2018
   12PRO     HA  195   3.938   3.146   1.854  1.0155  0.6091 -0.4358
   12PRO      C  196   4.007   2.935   1.857 -0.2235 -0.2474  0.0752
   12PRO      O  197   4.107   2.961   1.790  0.1088 -1.0711 -0.0372
   13SER      N  198   3.957   2.817   1.866  0.6148 -1.0970 -0.4752
   13SER      H  199   3.878   2.804   1.927 -0.4438  0.1476 -1.5252
   13SER     CA  200   4.030   2.698   1.828 -0.3969 -0.1194 -0.1628
   13SER     HA  201   4.137   2.709   1.841 -0.5054 -1.2395  2.3930
   13SER     CB  202   3.983   2.581   1.919  0.0544 -0.2940  0.6273
   13SER    HB1  203   4.068   2.514   1.908 -0.5363 -0.9778  0.0821
   13SER    HB2  204   3.889   2.538   1.885  0.4115 -1.2891  0.8662
   13SER     OG  205   3.973   2.614   2.057  0.0955  0.3152 -0.4667
   13SER     HG  206   4.059   2.600   2.100 -0.5910 -0.5355  0.7163
   13SER      C  207   4.018   2.662   1.676 -0.1428  0.7071 -0.4515
   13SER      O  208   4.069   2.565   1.632  0.1391 -0.1301 -0.6538
   14SER      N  209   3.938   2.749   1.609 -0.6615 -0.1615 -0.3054
   14SER      H  210   3.911   2.831   1.662 -1.1928 -1.0816  0.9184
   14SER     CA  211   3.928   2.763   1.461  0.2007  0.3868  0.0042
   14SER     HA  212   3.934   2.667   1.408  1.4517  0.9271 -0.8948
   14SER     CB  213   3.785   2.818   1.437 -0.0565 -0.0766  0.1208
   14SER    HB1  214   3.790   2.927   1.430  0.4669 -0.0191  1.0787
   14SER    HB2  215   3.721   2.795   1.522  1.2882 -2.3526  0.6088
   14SER     OG  216   3.722   2.769   1.323  0.0015 -0.2036  0.6229
   14SER     HG  217   3.667   2.696   1.351  0.8557 -0.7220  0.9672
   14SER      C  218   4.039   2.848   1.393  0.3646  0.1469 -0.0822
   14SER      O  219   4.047   2.853   1.271  0.3447  0.7172  0.0861
   15GLY      N  220   4.135   2.911   1.469  0.1454 -0.4084 -0.2029
   15GLY      H  221   4.128   2.907   1.570 -0.7692 -3.2195 -0.2762
   15GLY     CA  222   4.236   2.988   1.398 -0.2917 -0.6830 -0.4194
   15GLY    HA1  223   4.288   2.926   1.325 -0.1490  1.6060 -2.3943
   15GLY    HA2  224   4.302   3.016   1.481  0.8928  2.6744 -2.2654
   15GLY      C  225   4.186   3.120   1.334  0.2851  0.4055  0.0515
   15GLY      O  226   4.235   3.169   1.230 -0.2814  0.1725 -0.8805
   16ARG      N  227   4.081   3.179   1.388 -0.4944  0.8385 -0.1274
   16ARG      H  228   4.048   3.145   1.477 -0.7665 -1.6959 -1.1024
   16ARG     CA  229   4.021   3.304   1.339  0.2226 -0.4314 -0.5984
   16ARG     HA  230   4.096   3.358   1.281 -0.3881 -0.1257 -1.1224
   16ARG     CB  231   3.909   3.272   1.243 -0.5528  0.1480  0.0640
   16ARG    HB1  232   3.956   3.239   1.150 -1.0643  1.1252 -0.5500
   16ARG    HB2  233   3.865   3.366   1.210 -0.9267 -0.1407 -0.2773
   16ARG     CG  234   3.786   3.192   1.298  0.1370  0.0950  0.7135
   16ARG    HG1  235   3.729   3.259   1.363  0.5644  1.4604 -0.2724
   16ARG    HG2  236   3.828   3.109   1.356  2.6960  0.7075 -0.1149
   16ARG     CD  237   3.692   3.141   1.186 -0.7357 -0.3620 -0.1417
   16ARG    HD1  238   3.672   3.219   1.113  0.7060 -1.2038 -1.5011
   16ARG    HD2  239   3.601   3.110   1.237  0.3589 -1.6612  1.1394
   16ARG     NE  240   3.749   3.019   1.140  0.6778  0.5201  0.3576
   16ARG     HE  241   3.748   2.940   1.203  1.1750  0.4546  0.2900
   16ARG     CZ  242   3.806   2.995   1.023 -0.3386  0.0530  0.4796
   16ARG    NH1  243   3.823   3.095   0.943 -0.0497  0.2427  0.2158
   16ARG   HH11  244   3.792   3.187   0.971  0.5254  0.2117  0.9861
   16ARG   HH12  245   3.876   3.082   0.858 -2.2569  1.5430 -1.4730
   16ARG    NH2  246   3.860   2.879   0.991 -0.0649 -0.2568  0.3288
   16ARG   HH21  247   3.836   2.803   1.053 -3.7136 -0.2139 -0.7736
   16ARG   HH22  248   3.899   2.870   0.898  0.7342  0.3801  0.5895
   16ARG      C  249   3.978   3.379   1.464  0.2867 -0.2764 -0.5622
   16ARG      O  250   3.927   3.318   1.560  0.1065 -0.7229  0.1929
   17PRO      N  251   3.992   3.517   1.469 -0.4049 -0.0734 -0.0014
   17PRO     CD  252   4.048   3.600   1.359 -0.1238  0.2178  0.1305
   17PRO    HD1  253   3.988   3.584   1.270 -1.0310  0.1068  0.7405
   17PRO    HD2  254   4.153   3.581   1.341 -0.0740  1.0630 -0.5289
   17PRO     CG  255   4.045   3.749   1.404 -0.0397  0.3602 -0.2939
   17PRO    HG1  256   3.949   3.797   1.392  1.4289  3.6756  0.1896
   17PRO    HG2  257   4.121   3.808   1.352 -1.4421  2.3151 -0.2195
   17PRO     CB  258   4.059   3.728   1.557  0.1974  0.0803 -0.0140
   17PRO    HB1  259   4.010   3.810   1.608  0.7973 -0.4471  1.4547
   17PRO    HB2  260   4.164   3.726   1.585  0.4764 -0.5518 -1.0359
   17PRO     CA  261   3.972   3.603   1.585  0.3037  0.2418  0.5877
   17PRO     HA  262   4.002   3.554   1.678  0.4730 -1.4537 -0.3292
   17PRO      C  263   3.822   3.645   1.602  0.0404  1.4273  0.5902
   17PRO      O  264   3.749   3.650   1.501  0.6073  0.2438 -0.2672
   18PRO      N  265   3.784   3.673   1.728  0.0193  0.2209  0.8119
   18PRO     CD  266   3.866   3.685   1.843  0.5971 -0.0131 -0.2164
   18PRO    HD1  267   3.958   3.741   1.823  2.3871 -3.1614 -1.4734
   18PRO    HD2  268   3.890   3.584   1.876 -0.7660 -0.3006 -0.0565
   18PRO     CG  269   3.782   3.755   1.957  0.0471  0.2292 -0.4211
   18PRO    HG1  270   3.812   3.860   1.967 -3.2734  1.3202 -0.7177
   18PRO    HG2  271   3.792   3.704   2.053 -1.3928 -1.0641 -0.9123
   18PRO     CB  272   3.635   3.741   1.904  0.4113  0.7036  0.1337
   18PRO    HB1  273   3.568   3.825   1.924 -0.4169  0.9229 -2.9837
   18PRO    HB2  274   3.593   3.646   1.939 -2.1324  1.1125 -1.4894
   18PRO     CA  275   3.646   3.717   1.754 -0.4162  0.8356  0.6401
   18PRO     HA  276   3.579   3.634   1.730  0.4040  0.4565 -0.4393
   18PRO      C  277   3.604   3.838   1.676  0.0134 -1.1764 -0.3415
   18PRO      O  278   3.678   3.944   1.689 -0.2536  0.1439 -0.4152
   19PRO      N  279   3.490   3.836   1.604 -0.3757  0.1416 -0.0186
   19PRO     CD  280   3.396   3.727   1.587  0.6422  0.0949  0.5644
   19PRO    HD1  281   3.363   3.702   1.688 -2.8923  0.5715 -0.3443
   19PRO    HD2  282   3.438   3.641   1.535 -1.0756 -1.7749  2.1218
   19PRO     CG  283   3.280   3.779   1.510  1.1174  0.3184  0.4836
   19PRO    HG1  284   3.208   3.804   1.588  2.8240 -0.9189  2.5577
   19PRO    HG2  285   3.250   3.702   1.439  1.9788  0.9138 -0.5557
   19PRO     CB  286   3.330   3.907   1.440  0.2100  0.5315 -0.2807
   19PRO    HB1  287   3.249   3.979   1.426 -1.0451 -1.2732 -3.1582
   19PRO    HB2  288   3.380   3.881   1.346 -0.9273 -1.5642 -0.3643
   19PRO     CA  289   3.440   3.956   1.533  0.1050 -0.6049 -0.2508
   19PRO     HA  290   3.522   4.003   1.478 -0.9304  2.2546  0.4798
   19PRO      C  291   3.382   4.059   1.627  0.3861 -0.3868 -0.2109
   19PRO      O  292   3.313   4.022   1.718 -0.5053  0.3848 -0.2776
   20SER      N  293   3.400   4.188   1.598 -0.2671 -0.2650 -0.2909
   20SER      H  294   3.461   4.203   1.519  1.2470  2.5344  1.2420
   20SER     CA  295   3.363   4.300   1.683  0.4491  0.2468  0.5275
   20SER     HA  296   3.347   4.255   1.781  1.3835  1.3570  1.2115
   20SER     CB  297   3.469   4.406   1.708  0.6695  0.3233 -0.4769
   20SER    HB1  298   3.441   4.474   1.788  2.3804  1.3593 -0.7114
   20SER    HB2  299   3.473   4.467   1.617  1.9424  1.5147  0.3411
   20SER     OG  300   3.592   4.347   1.727 -1.1080  0.1507 -0.4065
   20SER     HG  301   3.629   4.295   1.654  1.6786  0.4396  0.6681
   20SER      C  302   3.230   4.356   1.646  0.8247  0.2808 -0.2814
   20SER    OC1  303   3.145   4.369   1.735  0.0476  0.5522 -0.6383
   20SER    OC2  304   3.212   4.406   1.531 -0.0358  0.1383 -0.1082
   21SOL     OW  305   1.334   3.828   0.427  0.6808  0.3787  0.3801
   21SOL    HW1  306   1.293   3.847   0.343  1.1399  0.9655  0.2843
   21SOL    HW2  307   1.412   3.884   0.430 -0.0677  1.4014  1.7817
   22SOL     OW  308   0.240   2.224   2.957 -0.1480 -0.1077 -0.1907
   22SOL    HW1  309   0.208   2.242   3.045 -0.3050  2.1231 -0.6698
   22SOL    HW2  310   0.335   2.213   2.969  0.2409  2.7669 -0.0223
   23SOL     OW  311   2.650   0.912   1.277 -0.1648  0.3084 -0.0590
   23SOL    HW1  312   2.575   0.862   1.309 -1.6273  2.0207 -0.6477
   23SOL    HW2  313   2.708   0.919   1.353 -0.0392 -1.9352  0.1300
   24SOL     OW  314   4.381   3.213   2.474  0.6799 -0.6233 -0.3719
   24SOL    HW1  315   4.360   3.275   2.544 -0.2708 -0.8881 -0.4073
   24SOL    HW2  316   4.329   3.136   2.495 -0.6467 -0.2346 -2.0792
   25SOL     OW  317   2.106   0.694   0.028  0.1263  0.8009  0.2414
   25SOL    HW1  318   2.159   0.614   0.039 -0.7129  0.5201  2.7803
   25SOL    HW2  319   2.165   0.765   0.055  0.8549  1.1156 -1.9660
   26SOL     OW  320   1.839   2.878   1.237  0.0683  0.2845 -0.3766
   26SOL    HW1  321   1.745   2.866   1.226  0.2568 -1.9967  0.0291
   26SOL    HW2  322   1.874   2.881   1.147 -0.3279  0.7782 -0.5192
   27SOL     OW  323   0.490   3.664   2.767 -0.7700  0.5826  0.2355
   27SOL    HW1  324   0.558   3.715   2.811 -0.6363 -0.4062  1.2233
   27SOL    HW2  325   0.501   3.576   2.801 -1.8324  0.1645 -0.4564
   28SOL     OW  326   3.541   0.352   0.882  0.4340 -0.7289  0.0196
   28SOL    HW1  327   3.546   0.278   0.822 -0.3451 -0.8270  0.0711
   28SOL    HW2  328   3.467   0.403   0.850  0.4642 -0.4009  0.4741
   29SOL     OW  329   3.089   1.935   2.152  0.2027 -0.1662  0.5567
   29SOL    HW1  330   3.007   1.956   2.106  0.7875  3.8320  1.0463
   29SOL    HW2  331   3.074   1.965   2.242  1.0657 -2.7259  1.6666
   30SOL     OW  332   3.131   0.829   0.319 -0.0701  0.1025  0.3885
   30SOL    HW1  333   3.063   0.795   0.261  1.0607  0.7929 -1.4331
   30SOL    HW2  334   3.133   0.767   0.392 -1.2227 -1.0990 -0.5431
   31SOL     OW  335   0.924   4.046   2.526 -0.4146  0.0507 -0.4287
   31SOL    HW1  336   1.010   4.073   2.557 -0.1844 -1.9254  0.8600
   31SOL    HW2  337   0.942   3.990   2.451 -0.7405  1.4013 -1.5500
   32SOL     OW  338   1.515   0.363   2.527 -0.3032 -0.5091 -0.2010
   32SOL    HW1  339   1.580   0.295   2.540  0.9051  0.6749  0.1595
   32SOL    HW2  340   1.566   0.443   2.517 -1.7030  0.4135 -0.1946
   33SOL     OW  341   0.416   0.428   1.913 -0.2664  0.2325 -0.6499
   33SOL    HW1  342   0.380   0.511   1.944 -2.0908 -0.0842 -1.7320
   33SOL    HW2  343   0.481   0.452   1.847  0.7552  0.8109  0.5298
   34SOL     OW  344   0.380   1.028   1.774  0.5413 -0.0054 -0.0482
   34SOL    HW1  345   0.322   0.963   1.736  2.4014 -1.8333  0.0482
   34SOL    HW2  346   0.441   1.051   1.704  0.5980  0.7960  0.2466
   35SOL     OW  347   3.534   0.466   0.543 -0.1180  0.3448 -0.4590
   35SOL    HW1  348   3.475   0.444   0.470  0.4705 -0.0310 -0.8316
   35SOL    HW2  349   3.475   0.486   0.615 -0.7883 -2.7016  0.0049
   36SOL     OW  350   3.509   1.456   0.631 -0.3747 -0.2947  0.5625
   36SOL    HW1  351   3.461   1.379   0.601 -2.5002  0.4258  1.9016
   36SOL    HW2  352   3.460   1.531   0.597  0.8505  0.5035  0.4648
   37SOL     OW  353   0.030   0.143   2.387  0.2795 -0.6750 -0.3424
   37SOL    HW1  354   0.042   0.060   2.433 -1.2295 -0.0372  1.3219
   37SOL    HW2  355   0.007   0.118   2.298  0.1040 -2.0380  0.0595
   38SOL     OW  356   2.379   2.903   0.595 -0.0947 -0.7730  0.0404
   38SOL    HW1  357   2.392   2.815   0.630 -1.4799 -1.0101  0.0067
   38SOL    HW2  358   2.284   2.915   0.592  0.0540  1.2686  1.3943
   39SOL     OW  359   2.347   1.538   2.436 -0.2168 -0.4203  0.3198
   39SOL    HW1  360   2.432   1.582   2.446 -0.2778  0.0038 -0.8131
   39SOL    HW2  361   2.361   1.476   2.364 -0.5813 -1.1072  0.8336
   40SOL     OW  362   1.991   0.612   0.953 -0.0870  0.0423  0.0024
   40SOL    HW1  363   2.002   0.624   1.047  0.4392  0.6266 -0.1223
   40SOL    HW2  364   1.999   0.518   0.939 -0.4121 -0.0694  0.5731
   41SOL     OW  365   2.548   2.523   0.407  0.0324  0.9059  0.5177
   41SOL    HW1  366   2.460   2.561   0.399  0.0641  0.5876 -4.4010
   41SOL    HW2  367   2.535   2.430   0.393  1.1827  1.1388 -3.0528
   42SOL     OW  368   1.048   1.552   1.253 -0.7075 -0.3123 -0.2162
   42SOL    HW1  369   1.117   1.505   1.301 -0.0667  1.4010  0.6200
   42SOL    HW2  370   1.095   1.614   1.198 -1.5679  0.7492  0.2220
   43SOL     OW  371   3.884   2.359   2.740  0.2832 -0.3003  0.2326
   43SOL    HW1  372   3.850   2.339   2.652 -0.6306  0.5746  0.3613
   43SOL    HW2  373   3.979   2.353   2.731  0.2175  0.0255 -0.8848
   44SOL     OW  374   2.674   0.822   1.881 -0.0446 -0.3187 -0.3723
   44SOL    HW1  375   2.743   0.889   1.873  0.9315 -1.0926  0.9899
   44SOL    HW2  376   2.712   0.743   1.843  0.0747 -0.8994  0.8968
   45SOL     OW  377   1.096   3.266   1.121  0.1352  0.4173 -0.1583
   45SOL    HW1  378   1.062   3.337   1.066 -0.2323  1.8322  1.7785
   45SOL    HW2  379   1.165   3.306   1.173 -2.2355  0.3817  3.3572
   46SOL     OW  380   0.281   0.588   2.884 -0.2814 -0.7023  0.6054
   46SOL    HW1  381   0.331   0.523   2.834  1.0793 -0.5649  1.7267
   46SOL    HW2  382   0.236   0.639   2.818 -2.1578 -3.3134 -0.3114
   47SOL     OW  383   0.166   0.020   1.431 -0.4160 -0.0195  0.5383
   47SOL    HW1  384   0.207  -0.014   1.510  1.3848  2.4385  0.7953
   47SOL    HW2  385   0.178   0.115   1.437  0.8632  0.2179 -3.1964
   48SOL     OW  386   0.027   0.222   1.832 -0.1403 -0.1603  0.4791
   48SOL    HW1  387  -0.024   0.285   1.883 -1.3945  0.2392 -1.1771
   48SOL    HW2  388   0.079   0.275   1.773 -0.8876 -0.6374 -0.6439
   49SOL     OW  389   4.244   3.904   1.080 -0.0896  0.5002  0.1010
   49SOL    HW1  390   4.211   3.830   1.029  0.2025  0.4499 -0.0225
   49SOL    HW2  391   4.337   3.908   1.057  0.2112  0.0403  1.1667
   50SOL     OW  392   3.021   1.320   1.344 -0.2692  0.5425  0.6121
   50SOL    HW1  393   3.067   1.343   1.424  0.0938 -1.9906  1.2169
   50SOL    HW2  394   3.090   1.312   1.278 -0.2327 -0.0067  0.7133
   51SOL     OW  395   3.923   2.236   2.136 -0.1155  0.3739 -0.3262
   51SOL    HW1  396   3.966   2.248   2.051 -1.2886  1.2750 -0.8316
   51SOL    HW2  397   3.994   2.213   2.196  0.6543 -0.9701 -1.6775
   52SOL     OW  398   2.190   1.130   0.538 -0.2216 -0.0126 -0.4340
   52SOL    HW1  399   2.167   1.039   0.517  0.1348  0.0950 -1.3529
   52SOL    HW2  400   2.117   1.162   0.590 -0.2858 -0.8679  0.0232
   53SOL     OW  401   0.933   2.030   0.948  0.4700  0.2114 -0.2047
   53SOL    HW1  402   1.011   1.995   0.906  1.1023  1.1803  0.1123
   53SOL    HW2  403   0.966   2.077   1.025 -0.4198  0.6804 -0.0903
   54SOL     OW  404   4.020   2.765   2.375  0.0557 -0.0928 -0.4092
   54SOL    HW1  405   4.069   2.763   2.293 -1.9565 -0.2276 -1.6709
   54SOL    HW2  406   3.928   2.773   2.349 -0.5871  1.0405  1.8579
   55SOL     OW  407   4.364   2.582   0.472  0.0404  0.2825  0.1234
   55SOL    HW1  408   4.404   2.601   0.387 -0.0930 -0.8081 -0.1944
   55SOL    HW2  409   4.377   2.663   0.523 -1.2068  1.5203 -1.4181
   56SOL     OW  410   0.317   3.649   0.775 -0.0073  0.2709 -0.0281
   56SOL    HW1  411   0.271   3.717   0.726  1.3318 -0.0109 -1.7949
   56SOL    HW2  412   0.361   3.696   0.845 -2.3467  0.6300  1.2884
   57SOL     OW  413   3.823   1.953   0.871  0.2147 -0.3103  0.0367
   57SOL    HW1  414   3.767   2.003   0.813 -1.1572 -2.2894 -0.4472
   57SOL    HW2  415   3.903   2.005   0.879 -0.0287  0.5920 -2.6426
   58SOL     OW  416   1.788   3.721   1.219  0.2233  0.5305  0.1842
   58SOL    HW1  417   1.801   3.632   1.188  2.6230  1.4618 -1.8410
   58SOL    HW2  418   1.693   3.733   1.218 -0.0653 -0.6876 -3.7655
   59SOL     OW  419   1.814   3.946   2.697  0.1350 -0.3755 -0.0355
   59SOL    HW1  420   1.736   3.933   2.644  0.0331  2.8588 -0.8905
   59SOL    HW2  421   1.796   3.899   2.779 -2.7710  0.3134 -0.1689
   60SOL     OW  422   1.665   1.405   0.071 -0.7316  0.0634  0.0745
   60SOL    HW1  423   1.753   1.430   0.042 -0.5528 -0.5353  0.0862
   60SOL    HW2  424   1.678   1.367   0.157 -1.0535  0.3018  0.2304
   61SOL     OW  425   1.069   2.585   1.575  0.6709 -0.8103  0.1804
   61SOL    HW1  426   1.097   2.538   1.653 -0.0308  0.0817  1.0114
   61SOL    HW2  427   1.131   2.657   1.566  0.9370 -1.0899 -0.2836
   62SOL     OW  428   3.607   4.431   1.999  0.2090  0.1359  0.3957
   62SOL    HW1  429   3.669   4.374   2.045  1.3646  0.1072 -1.1143
   62SOL    HW2  430   3.608   4.399   1.908  0.8033  2.4521 -0.4818
   63SOL     OW  431   4.095   2.216   1.185  0.3674  0.7192 -0.7701
   63SOL    HW1  432   4.023   2.273   1.159  0.0055  0.7086  0.2053
   63SOL    HW2  433   4.116   2.241   1.275 -1.0167 -1.8764  0.3786
   64SOL     OW  434   0.404   1.028   2.073  0.1816 -0.3224  0.2422
   64SOL    HW1  435   0.389   1.012   1.980  1.9641 -1.2854  0.0636
   64SOL    HW2  436   0.363   1.112   2.091 -1.4135 -0.7770 -1.0747
   65SOL     OW  437   2.075   0.213   1.606 -0.4560 -0.1869  0.3353
   65SOL    HW1  438   2.064   0.302   1.572  0.9867  0.0538  0.4533
   65SOL    HW2  439   2.061   0.222   1.700 -1.3444 -0.2947  0.2275
   66SOL     OW  440   1.411   2.993   2.975  0.0835  0.4880  0.7054
   66SOL    HW1  441   1.397   3.030   3.062 -1.2074  0.7927  0.3898
   66SOL    HW2  442   1.353   2.917   2.971  1.8780 -0.9492  0.9352
   67SOL     OW  443   0.839   0.132   0.416 -0.4379  0.0737 -0.0376
   67SOL    HW1  444   0.832   0.203   0.352  0.7664  0.2467 -0.0136
   67SOL    HW2  445   0.921   0.088   0.393 -0.6329 -0.6393  0.6144
   68SOL     OW  446   0.529   4.402   0.009 -0.0665  0.1024  0.0944
   68SOL    HW1  447   0.560   4.399   0.100  0.3537 -0.3230 -0.0616
   68SOL    HW2  448   0.608   4.397  -0.044 -0.4288 -2.1328 -0.3374
   69SOL     OW  449   1.517   2.739   2.765  0.3662  0.3632 -0.2675
   69SOL    HW1  450   1.557   2.691   2.838  1.7568  1.3337 -0.3720
   69SOL    HW2  451   1.494   2.824   2.801  0.6630  0.6959 -0.8476
   70SOL     OW  452   1.878   2.159   0.889 -0.2753 -0.2429  0.4856
   70SOL    HW1  453   1.897   2.088   0.828 -2.0067 -0.4979  0.1945
   70SOL    HW2  454   1.883   2.119   0.975 -1.0856 -0.6889  0.3302
   71SOL     OW  455   0.343   4.035   0.863 -0.4942  0.4513  0.4016
   71SOL    HW1  456   0.353   4.094   0.788  0.6494  0.3949  0.4962
   71SOL    HW2  457   0.330   4.093   0.938  1.5121  0.6643  0.6381
   72SOL     OW  458   1.128   3.918   0.177  0.5842 -0.0562  0.1460
   72SOL    HW1  459   1.202   3.867   0.146  1.5384  1.1437  0.3674
   72SOL    HW2  460   1.156   4.009   0.168 -0.8748  0.4281  0.2099
   73SOL     OW  461   1.578   4.327   1.364  0.2545  0.1490  0.6729
   73SOL    HW1  462   1.584   4.377   1.445  2.6784  0.7319  0.2134
   73SOL    HW2  463   1.639   4.369   1.305 -0.8038 -0.8074 -1.1918
   74SOL     OW  464   2.467   0.478   1.301  0.1850 -0.1948  0.2775
   74SOL    HW1  465   2.383   0.461   1.260  0.0997 -0.0192  0.3796
   74SOL    HW2  466   2.484   0.401   1.354 -1.0118  0.7252  2.1128
   75SOL     OW  467   2.717   0.841   3.070 -0.7781 -0.1688  0.8276
   75SOL    HW1  468   2.727   0.865   2.978 -2.0721 -1.5066  0.2893
   75SOL    HW2  469   2.658   0.766   3.069  0.5663 -1.3346  2.6305
   76SOL     OW  470   2.179   0.869   1.282  0.6602 -0.1186 -0.0085
   76SOL    HW1  471   2.199   0.893   1.191  0.5945 -0.0529 -0.0056
   76SOL    HW2  472   2.206   0.946   1.333  0.3888 -0.0248 -0.0046
   77SOL     OW  473   0.716   1.375   0.766  0.1264 -0.0722  0.4965
   77SOL    HW1  474   0.741   1.402   0.678 -0.1112 -1.2445  0.0553
   77SOL    HW2  475   0.742   1.449   0.822  3.1862 -0.5386 -0.1215
   78SOL     OW  476   0.384   2.812   0.551  0.0055  0.3957  0.2187
   78SOL    HW1  477   0.389   2.885   0.613  0.8829  1.0531 -0.6060
   78SOL    HW2  478   0.337   2.847   0.476  0.6947  0.2224 -0.3071
   79SOL     OW  479   2.825   4.230   2.334 -0.1478  0.1730  0.0923
   79SOL    HW1  480   2.825   4.199   2.243  3.4014  1.7312 -0.6161
   79SOL    HW2  481   2.909   4.200   2.369 -0.0523  2.2622  1.8264
   80SOL     OW  482   3.286   1.490   0.350 -0.5546  0.6805  0.1814
   80SOL    HW1  483   3.312   1.527   0.434 -1.5194 -0.5548  1.0796
   80SOL    HW2  484   3.317   1.400   0.353  1.9798  1.3690 -2.0570
   81SOL     OW  485   2.321   2.244   1.229  0.1450 -0.4278 -0.4130
   81SOL    HW1  486   2.409   2.207   1.221  0.8106  0.9851  0.0147
   81SOL    HW2  487   2.316   2.274   1.320 -0.4151  0.3749 -0.6918
   82SOL     OW  488   2.420   1.692   2.896  0.4764  0.6778 -0.1915
   82SOL    HW1  489   2.363   1.657   2.827  1.5523  0.6004 -1.0665
   82SOL    HW2  490   2.497   1.635   2.894 -0.4878 -0.9370  2.8227
   83SOL     OW  491   0.417   0.409   1.012  0.4648 -0.3973 -0.0213
   83SOL    HW1  492   0.435   0.315   1.019 -0.3500 -0.4285  2.4930
   83SOL    HW2  493   0.483   0.451   1.067  0.7079  0.5303 -0.9700
   84SOL     OW  494   2.049   1.143   1.104  0.7873  0.3873  0.0635
   84SOL    HW1  495   2.025   1.236   1.113  1.9801  0.6772  0.4440
   84SOL    HW2  496   1.996   1.098   1.170  0.1315  0.7754 -0.1867
   85SOL     OW  497   1.194  -0.035   0.760  0.4177 -0.2731 -0.0383
   85SOL    HW1  498   1.283  -0.000   0.770  0.7468 -0.9402 -0.5762
   85SOL    HW2  499   1.138   0.041   0.774  1.0618  0.1106  0.5545
   86SOL     OW  500   2.113   2.884   1.628 -0.3785 -0.1052 -0.1849
   86SOL    HW1  501   2.129   2.807   1.575  0.7868 -0.2580  0.3506
   86SOL    HW2  502   2.046   2.933   1.580 -0.8172 -1.2193 -0.7491
   87SOL     OW  503   4.198   1.066   3.058 -0.3899  0.0501  0.1814
   87SOL    HW1  504   4.206   1.085   2.964 -2.0927 -0.2830 -0.0584
   87SOL    HW2  505   4.151   1.141   3.094  0.1851  0.1393  0.7750
   88SOL     OW  506   4.350   1.341   1.984  0.3336  0.2731  0.0895
   88SOL    HW1  507   4.338   1.317   2.077 -1.0310  0.5083 -0.0016
   88SOL    HW2  508   4.261   1.338   1.948  0.9137 -0.2951 -1.3346
   89SOL     OW  509   1.908   1.041   1.320  0.3518  0.0850  0.2024
   89SOL    HW1  510   1.874   0.960   1.282 -0.1616 -0.5280  1.8995
   89SOL    HW2  511   1.994   1.018   1.354  1.5228  1.0286 -1.8809
   90SOL     OW  512   1.711   2.239   0.496 -0.1205 -0.0625  0.0846
   90SOL    HW1  513   1.772   2.166   0.503  1.6233  1.0659 -1.7762
   90SOL    HW2  514   1.767   2.314   0.472 -2.2371  0.9488 -2.2377
   91SOL     OW  515   1.275   3.176   2.619 -0.2569 -0.0704 -0.0627
   91SOL    HW1  516   1.208   3.165   2.686 -1.5320  2.0660 -0.8904
   91SOL    HW2  517   1.347   3.220   2.663 -1.6072  2.5210 -0.2693
   92SOL     OW  518   4.196   0.992   2.057 -0.3706  0.0029  0.2983
   92SOL    HW1  519   4.114   0.980   2.010  0.3726 -2.2635 -0.5571
   92SOL    HW2  520   4.245   1.055   2.004 -1.2605  0.8648  0.4681
   93SOL     OW  521   4.180   3.424   1.067 -0.4834 -0.0075  0.1050
   93SOL    HW1  522   4.178   3.342   1.118 -0.2581 -1.0060 -1.4089
   93SOL    HW2  523   4.265   3.462   1.087  0.0667 -0.9545 -0.3251
   94SOL     OW  524   1.685   3.327   0.212  0.4025  0.1062  0.2305
   94SOL    HW1  525   1.720   3.267   0.278  0.2884 -0.0968  0.1094
   94SOL    HW2  526   1.638   3.393   0.263  2.4221  1.4076  0.5154
   95SOL     OW  527   4.293   0.381   1.485 -0.0535  0.1034  0.2420
   95SOL    HW1  528   4.201   0.408   1.475  0.1912  1.0989  0.5946
   95SOL    HW2  529   4.327   0.378   1.395 -0.5303 -0.6889  0.0716
   96SOL     OW  530   3.660   1.534   0.411  0.3279 -0.4303  0.7878
   96SOL    HW1  531   3.652   1.629   0.405 -0.6261 -0.6081 -2.3927
   96SOL    HW2  532   3.605   1.510   0.485 -0.6755  1.3829  0.6935
   97SOL     OW  533   0.922   3.933   1.546  0.2063  0.4319 -0.1134
   97SOL    HW1  534   0.980   3.892   1.481  1.9048  0.2271  1.4468
   97SOL    HW2  535   0.921   4.026   1.522 -1.5703 -0.0175 -2.1152
   98SOL     OW  536   3.915   1.765   0.690  0.1856 -0.0549 -0.0246
   98SOL    HW1  537   3.888   1.818   0.765  1.0022  0.4256 -0.0557
   98SOL    HW2  538   3.997   1.723   0.718  1.5867  1.6639 -1.2767
   99SOL     OW  539   0.541   1.743   0.018 -0.8251  0.5778  0.7489
   99SOL    HW1  540   0.593   1.822   0.002  0.1634 -0.3430 -0.9101
   99SOL    HW2  541   0.603   1.671   0.009 -2.3822 -0.5930 -1.5203
  100SOL     OW  542   0.498   1.383   0.932 -0.3808 -0.2804 -0.2720
  100SOL    HW1  543   0.567   1.350   0.875  0.3227 -3.1793  1.9990
  100SOL    HW2  544   0.418   1.375   0.880  0.5143 -0.3985 -1.6856
  101SOL     OW  545   0.624   0.522   1.748  0.7408 -0.3309 -0.0007
  101SOL    HW1  546   0.680   0.567   1.811  1.5156 -0.7207 -0.3931
  101SOL    HW2  547   0.602   0.589   1.684  1.6824 -0.4319 -0.4454
  102SOL     OW  548   2.424   1.371   0.836  0.5736  0.3061 -0.2968
  102SOL    HW1  549   2.471   1.321   0.769 -0.1620 -1.3378  0.3664
  102SOL    HW2  550   2.357   1.312   0.868 -0.1979  1.6598  0.7121
  103SOL     OW  551   3.476   4.290   0.829 -0.3005 -0.4030  0.6586
  103SOL    HW1  552   3.430   4.327   0.754 -0.9603 -1.9882  0.2362
  103SOL    HW2  553   3.521   4.365   0.869 -0.4106  0.5790 -0.9568
  104SOL     OW  554   4.052   3.831   2.300  0.0939  0.6019  0.1821
  104SOL    HW1  555   4.104   3.848   2.379  0.4958  0.4062 -0.0342
  104SOL    HW2  556   4.042   3.917   2.259 -1.9715  1.0724  1.5453
  105SOL     OW  557   1.474   3.536   1.492 -0.2820 -0.1750 -0.0432
  105SOL    HW1  558   1.490   3.622   1.529 -0.2732 -0.3287  0.3195
  105SOL    HW2  559   1.397   3.504   1.539  0.2549 -0.7338  0.4656
  106SOL     OW  560  -0.004   2.262   2.583  0.1929 -0.2411 -0.2110
  106SOL    HW1  561   0.069   2.243   2.642  0.1324  0.4748  0.1067
  106SOL    HW2  562   0.028   2.330   2.525 -0.5937  0.9855  0.7338
  107SOL     OW  563   1.151   0.380   2.499 -0.0757 -0.1902  0.4267
  107SOL    HW1  564   1.220   0.314   2.490 -0.3461 -0.3805 -0.3337
  107SOL    HW2  565   1.090   0.342   2.563  0.4761 -0.0527  1.0461
  108SOL     OW  566   3.688   2.764   0.762  0.6050 -0.4917  0.3848
  108SOL    HW1  567   3.619   2.824   0.792  1.1410  0.1748  0.3261
  108SOL    HW2  568   3.715   2.799   0.677  1.3883 -0.4098  0.6546
  109SOL     OW  569   1.766   0.207   2.474 -0.1808  0.0695 -0.2602
  109SOL    HW1  570   1.796   0.196   2.564 -0.1361  0.4341 -0.2287
  109SOL    HW2  571   1.845   0.233   2.426  0.0810 -1.3609 -0.6612
  110SOL     OW  572   3.262   3.983   0.657 -0.6020 -0.6043 -0.6979
  110SOL    HW1  573   3.226   4.018   0.739 -1.4717  2.4713 -2.2352
  110SOL    HW2  574   3.185   3.971   0.601  0.1551 -0.7500 -1.7168
  111SOL     OW  575   4.252   1.706   0.520  0.3143 -0.5914 -0.4426
  111SOL    HW1  576   4.187   1.661   0.466 -0.5128 -0.0897  0.1111
  111SOL    HW2  577   4.331   1.651   0.514  0.2195 -0.6014 -2.0543
  112SOL     OW  578   2.348   0.989   0.347 -0.1758 -0.3456  0.4353
  112SOL    HW1  579   2.305   1.045   0.412 -3.0447 -1.9420  0.0993
  112SOL    HW2  580   2.388   0.919   0.397 -1.2186 -0.8373  0.6175
  113SOL     OW  581   0.124   3.848   1.362 -0.4826 -0.5870 -0.3959
  113SOL    HW1  582   0.120   3.780   1.430 -0.1905 -0.6309 -0.4225
  113SOL    HW2  583   0.172   3.807   1.290  4.2885  1.1905  1.4051
  114SOL     OW  584   1.740   4.366   0.670 -0.7142  0.7799 -0.3362
  114SOL    HW1  585   1.721   4.358   0.763  0.9303  2.0607  0.1726
  114SOL    HW2  586   1.747   4.460   0.655 -2.3272  0.6614 -2.0861
  115SOL     OW  587   4.011   4.020   2.779  0.7364  0.1620 -0.5669
  115SOL    HW1  588   3.919   4.039   2.799  1.2486  2.1789  0.1070
  115SOL    HW2  589   4.046   4.103   2.747  1.7349 -1.1989 -3.3009
  116SOL     OW  590   0.674   1.432   3.001 -0.3084  0.0735 -0.0712
  116SOL    HW1  591   0.738   1.414   2.932 -2.1212 -0.8937 -1.5758
  116SOL    HW2  592   0.632   1.348   3.018 -1.7217  0.8187  0.3099
  117SOL     OW  593   2.249   2.413   0.636  0.2475 -0.6896 -0.3277
  117SOL    HW1  594   2.238   2.353   0.563 -2.9460 -0.6242 -0.0226
  117SOL    HW2  595   2.236   2.359   0.714 -0.2536 -0.0575  0.0329
  118SOL     OW  596   1.624   3.012   2.644  0.0992  0.6015 -0.5646
  118SOL    HW1  597   1.671   3.068   2.582 -2.0104 -0.0572 -2.9217
  118SOL    HW2  598   1.689   2.949   2.673  1.1305  0.7774 -2.3392
  119SOL     OW  599   0.246   2.657   2.284 -0.1149 -0.0305  0.2372
  119SOL    HW1  600   0.319   2.716   2.267  0.1970 -0.9131 -1.8499
  119SOL    HW2  601   0.209   2.638   2.197 -0.0862 -2.9921  0.7492
  120SOL     OW  602   1.775   0.458   0.700 -0.1707 -0.2903 -0.6428
  120SOL    HW1  603   1.773   0.505   0.783 -1.7414 -2.9147  0.9523
  120SOL    HW2  604   1.725   0.512   0.639 -1.7240  0.2246  1.0271
  121SOL     OW  605   2.456   4.093   1.614  0.7674  0.0788 -0.0123
  121SOL    HW1  606   2.381   4.093   1.675  0.5855 -1.0477 -0.2250
  121SOL    HW2  607   2.425   4.143   1.539  0.6009  0.5178  0.3383
  122SOL     OW  608   0.920   4.198   0.870 -0.3771  0.2925  0.0382
  122SOL    HW1  609   0.857   4.243   0.925 -0.3759 -0.6693  0.8589
  122SOL    HW2  610   0.973   4.268   0.832 -0.3853  0.9864  1.2572
  123SOL     OW  611   2.302   3.302   0.599  0.3519 -0.2809  0.2684
  123SOL    HW1  612   2.212   3.296   0.568  0.0825  0.2895  0.9241
  123SOL    HW2  613   2.353   3.253   0.534 -0.5321 -1.3612  0.3538
  124SOL     OW  614   0.540   3.558   0.090  0.1926 -0.1037  0.2456
  124SOL    HW1  615   0.486   3.497   0.041  0.5217  1.8828 -2.8491
  124SOL    HW2  616   0.627   3.550   0.050  0.8701  0.5329  1.5393
  125SOL     OW  617   2.143   2.684   2.000 -0.6904 -0.2125 -0.2144
  125SOL    HW1  618   2.222   2.690   2.053  0.5961  2.2223 -2.2106
  125SOL    HW2  619   2.128   2.590   1.990  1.1514 -0.7309  1.3494
  126SOL     OW  620   1.645   3.563   0.861 -0.8762 -0.1632  0.1542
  126SOL    HW1  621   1.623   3.478   0.822 -1.1549  0.3437 -0.8373
  126SOL    HW2  622   1.575   3.579   0.924 -0.1856 -1.1971  1.2247
  127SOL     OW  623   3.802   0.919   3.117  0.7730  0.3935  0.2104
  127SOL    HW1  624   3.824   1.008   3.143  0.2674  0.0853  1.7867
  127SOL    HW2  625   3.794   0.923   3.022  2.5408  1.6193  0.0823
  128SOL     OW  626   1.758   4.351   0.959 -0.3810  0.0433 -0.6867
  128SOL    HW1  627   1.743   4.441   0.989  1.2815 -0.0664  0.5918
  128SOL    HW2  628   1.731   4.297   1.033 -0.3916 -0.4654 -1.0607
  129SOL     OW  629   3.622   3.246   2.589  0.2691  0.2086  0.7024
  129SOL    HW1  630   3.713   3.219   2.600  0.4487  0.2966 -0.4485
  129SOL    HW2  631   3.571   3.168   2.610  0.6244  0.0384  0.9392
  130SOL     OW  632   3.864   1.734   1.411 -0.5991  0.3590  0.6824
  130SOL    HW1  633   3.951   1.725   1.448 -0.5773 -0.3025  0.4784
  130SOL    HW2  634   3.844   1.827   1.419 -0.8306  0.1682  2.9154
  131SOL     OW  635   4.092   1.014   1.076  0.4051 -0.4610 -0.3105
  131SOL    HW1  636   4.167   1.073   1.069  1.1159 -1.0600  1.6391
  131SOL    HW2  637   4.055   1.012   0.988  0.7037  2.3914 -0.5864
  132SOL     OW  638   1.082   1.615   0.740  0.4395  0.3557 -0.3871
  132SOL    HW1  639   1.091   1.650   0.828 -0.8263  1.0614 -0.5269
  132SOL    HW2  640   1.134   1.673   0.685  2.0189 -0.6302 -0.0146
  133SOL     OW  641   0.295   3.335   1.812 -0.4048 -0.2025 -0.0418
  133SOL    HW1  642   0.256   3.422   1.800 -0.4745 -0.0427  1.1576
  133SOL    HW2  643   0.271   3.311   1.902  2.6319  0.1042  0.9346
  134SOL     OW  644   0.656   3.636   0.642 -0.3526 -0.0420  1.1015
  134SOL    HW1  645   0.607   3.665   0.565  1.5312 -0.2625 -0.2336
  134SOL    HW2  646   0.664   3.715   0.697 -1.3410  0.2134  0.8962
  135SOL     OW  647   1.738   3.528   1.692 -0.2767 -0.5237 -0.1048
  135SOL    HW1  648   1.699   3.480   1.618  2.0000 -2.3588 -0.2242
  135SOL    HW2  649   1.783   3.461   1.743 -1.4233  0.7694  2.7829
  136SOL     OW  650   2.092   1.938   1.311  0.0929 -0.1631  0.4326
  136SOL    HW1  651   2.043   2.017   1.332 -0.2206  0.1076 -1.1666
  136SOL    HW2  652   2.126   1.954   1.223 -0.4697 -2.0139 -0.1710
  137SOL     OW  653   3.766   2.417   1.411 -0.0741  0.4196 -0.6035
  137SOL    HW1  654   3.791   2.407   1.503 -1.1750  0.4033 -0.2815
  137SOL    HW2  655   3.681   2.462   1.414 -0.5284 -0.3228 -1.5656
  138SOL     OW  656   0.652   2.628   2.085  0.1055  0.1214  0.0104
  138SOL    HW1  657   0.698   2.711   2.097  2.2387 -0.9920  0.0536
  138SOL    HW2  658   0.656   2.586   2.171  1.3417 -1.0778 -0.5897
  139SOL     OW  659   0.320   2.780   1.482 -0.1239  0.0748  0.0975
  139SOL    HW1  660   0.267   2.825   1.547 -0.2979  4.0972 -2.5019
  139SOL    HW2  661   0.392   2.840   1.464  1.6481 -2.2748 -1.2543
  140SOL     OW  662   2.227   1.472   0.151 -0.3670  0.5952  0.0587
  140SOL    HW1  663   2.148   1.423   0.128  0.4281 -0.7163  0.0313
  140SOL    HW2  664   2.289   1.452   0.082  0.7305 -0.2061  1.2329
  141SOL     OW  665   0.523   3.803   0.897 -0.2231  0.0264 -0.3057
  141SOL    HW1  666   0.461   3.875   0.899  0.1002  0.2896  1.2210
  141SOL    HW2  667   0.609   3.846   0.893 -0.0861 -0.3075 -1.0393
  142SOL     OW  668   2.156   2.323   1.595 -0.1561 -0.3802  0.5084
  142SOL    HW1  669   2.105   2.283   1.665 -1.5699  1.4320  0.5762
  142SOL    HW2  670   2.247   2.301   1.616 -0.7170 -1.8342  1.5910
  143SOL     OW  671   1.325   3.581   0.958  0.8621 -0.0666  0.5463
  143SOL    HW1  672   1.325   3.667   1.001  2.4537 -0.7162  1.9749
  143SOL    HW2  673   1.236   3.549   0.968 -0.6879  2.5883 -2.6979
  144SOL     OW  674   0.390   1.922   1.877 -0.2138 -0.4175  0.1229
  144SOL    HW1  675   0.391   1.847   1.817 -0.7081 -0.6877  0.4490
  144SOL    HW2  676   0.323   1.900   1.942 -0.1656  0.1838  0.3803
  145SOL     OW  677   2.777   3.445   2.567 -0.1243 -0.5230 -0.3175
  145SOL    HW1  678   2.738   3.368   2.526 -0.2805 -0.3716 -0.4544
  145SOL    HW2  679   2.860   3.458   2.520 -0.5310 -0.0595 -0.9237
  146SOL     OW  680   0.472   2.010   1.578 -0.1587  0.4134  0.0146
  146SOL    HW1  681   0.505   1.956   1.650 -2.5867 -0.5435  0.5158
  146SOL    HW2  682   0.547   2.019   1.519  1.5244  0.0948  1.9678
  147SOL     OW  683   3.132   2.034   2.910  0.5798 -0.0865  0.3118
  147SOL    HW1  684   3.195   2.094   2.870  0.2185  0.7010  0.9093
  147SOL    HW2  685   3.180   1.991   2.981  0.3406  0.8132  1.0303
  148SOL     OW  686   0.056   3.779   0.359  0.0455  0.2286  0.4358
  148SOL    HW1  687  -0.007   3.810   0.294  1.5340  0.7303 -0.8297
  148SOL    HW2  688   0.042   3.684   0.361  1.0716 -0.0599 -1.9481
  149SOL     OW  689   1.310   4.338  -0.014  0.4474  0.3958  0.3789
  149SOL    HW1  690   1.397   4.354  -0.051  0.0967  2.8438  0.4565
  149SOL    HW2  691   1.311   4.382   0.072 -0.7622  0.2333  0.5042
  150SOL     OW  692   4.273   2.471   1.289  0.1649 -0.0238 -0.3504
  150SOL    HW1  693   4.204   2.485   1.224 -0.6641  1.6002  0.8105
  150SOL    HW2  694   4.351   2.509   1.251 -0.5761  1.9722  0.0318
  151SOL     OW  695   1.975   1.420   2.829 -0.5309 -0.0272 -0.1778
  151SOL    HW1  696   1.888   1.458   2.814 -1.1443 -0.0454  2.7379
  151SOL    HW2  697   2.036   1.488   2.800 -1.5860  1.5851  1.2305
  152SOL     OW  698   1.551   3.894   2.984  0.7490 -0.1374  0.1127
  152SOL    HW1  699   1.630   3.948   2.979  0.4150  0.2897 -0.7864
  152SOL    HW2  700   1.491   3.946   3.038  0.6570  0.0934 -0.2102
  153SOL     OW  701   3.273   0.851   2.150  0.2984  0.1583 -0.1676
  153SOL    HW1  702   3.189   0.817   2.181  0.3774  1.4529  1.5873
  153SOL    HW2  703   3.249   0.916   2.084 -0.0086 -0.4200 -0.6359
  154SOL     OW  704   0.115   3.123   0.152  0.5814  0.2071 -0.3790
  154SOL    HW1  705   0.083   3.172   0.228  1.0904  1.2951 -0.8550
  154SOL    HW2  706   0.037   3.105   0.101  0.2553 -0.3830  0.3039
  155SOL     OW  707   2.432   4.004   2.351 -0.2436 -0.2686 -0.3564
  155SOL    HW1  708   2.473   3.993   2.265 -0.5437  0.9521 -0.6647
  155SOL    HW2  709   2.378   3.925   2.361  1.2594 -1.3586 -0.4355
  156SOL     OW  710   2.586   0.257   1.383  0.0392 -0.2891 -0.1188
  156SOL    HW1  711   2.551   0.171   1.361 -1.8261  0.4874 -0.3974
  156SOL    HW2  712   2.679   0.252   1.360 -0.2022 -1.9581 -0.8735
  157SOL     OW  713   1.530   1.423   0.899 -0.3586  0.6613  0.1805
  157SOL    HW1  714   1.497   1.481   0.830 -0.5797  0.1005 -0.1959
  157SOL    HW2  715   1.590   1.477   0.950  1.5068  0.5418 -1.7405
  158SOL     OW  716   1.294   1.879   1.410 -0.0886 -0.1762 -0.2668
  158SOL    HW1  717   1.273   1.818   1.480  1.4569  0.0782  0.4482
  158SOL    HW2  718   1.235   1.953   1.424 -0.7658 -0.7374 -0.1084
  159SOL     OW  719   2.547   4.262   1.802  0.0164  0.7300  0.2906
  159SOL    HW1  720   2.552   4.224   1.714 -0.3191  1.4723 -0.0586
  159SOL    HW2  721   2.500   4.197   1.853  0.0540  0.3707 -0.1204
  160SOL     OW  722   2.358   2.062   2.480  0.5552 -0.1524 -0.0336
  160SOL    HW1  723   2.299   2.047   2.407 -1.1016  1.0326  0.9930
  160SOL    HW2  724   2.345   2.154   2.504  1.4542 -0.3513  1.4077
  161SOL     OW  725   2.883   4.231   0.905  0.7468 -0.4229  0.3356
  161SOL    HW1  726   2.814   4.287   0.870 -0.2753 -1.9808 -0.2448
  161SOL    HW2  727   2.927   4.286   0.971 -1.4190  0.4241  1.1884
  162SOL     OW  728   2.100   3.201   1.659  0.2595 -0.4593  0.8395
  162SOL    HW1  729   2.088   3.108   1.641  1.5667 -0.5453  0.2902
  162SOL    HW2  730   2.168   3.204   1.727  1.1011  0.1070  0.0040
  163SOL     OW  731   2.695   1.456   0.816  0.7324  0.4978 -0.2238
  163SOL    HW1  732   2.754   1.448   0.891  1.3777 -1.7900 -0.8931
  163SOL    HW2  733   2.608   1.460   0.855  0.9850 -1.6398  0.6789
  164SOL     OW  734   0.228   3.689   0.008 -0.3020  0.0351 -0.5998
  164SOL    HW1  735   0.151   3.745  -0.004 -1.3211 -0.9453  0.9115
  164SOL    HW2  736   0.256   3.706   0.098  0.4247 -0.6260 -0.6917
  165SOL     OW  737   0.719   2.024   1.366  0.1976 -0.1505 -0.6001
  165SOL    HW1  738   0.749   1.996   1.279  0.5002 -0.6202 -0.3511
  165SOL    HW2  739   0.787   1.992   1.425  0.2266  0.5661 -0.2313
  166SOL     OW  740   2.414   1.320   0.297  0.0286  0.2281  0.1901
  166SOL    HW1  741   2.371   1.390   0.248  1.4098  2.0116  1.4038
  166SOL    HW2  742   2.461   1.269   0.230 -0.9956  0.4454 -0.7164
  167SOL     OW  743   1.606   2.000   1.283 -0.3153 -0.1298 -0.7030
  167SOL    HW1  744   1.520   2.012   1.242 -1.1625 -0.8216  0.7760
  167SOL    HW2  745   1.645   1.927   1.235  0.2146  1.3133 -2.5306
  168SOL     OW  746   2.981   2.797   2.213 -0.3461 -0.6934  0.4434
  168SOL    HW1  747   2.912   2.827   2.154 -0.3287 -0.4986  0.5199
  168SOL    HW2  748   3.017   2.719   2.171  0.6451  0.2596 -0.5408
  169SOL     OW  749   0.975   3.830   2.304  0.1055 -0.0764  0.1318
  169SOL    HW1  750   1.016   3.832   2.218  0.2851 -0.6122  0.2002
  169SOL    HW2  751   0.888   3.865   2.290  0.0861 -0.2879 -0.2982
  170SOL     OW  752   3.957   0.531   2.782 -0.3591 -0.2896 -0.1872
  170SOL    HW1  753   4.011   0.465   2.827 -1.1140 -0.0533  1.1356
  170SOL    HW2  754   3.911   0.482   2.715 -0.1842 -0.9325  0.1480
  171SOL     OW  755   0.413   1.752   1.325 -0.0448  0.0458 -0.1221
  171SOL    HW1  756   0.332   1.730   1.372  0.6365 -0.1163  1.0108
  171SOL    HW2  757   0.482   1.743   1.391  0.6861  2.0896 -0.5584
  172SOL     OW  758   2.659   0.164   0.191 -0.1105  0.1628 -0.3973
  172SOL    HW1  759   2.738   0.198   0.234 -0.9243  2.2563 -0.4541
  172SOL    HW2  760   2.650   0.217   0.112 -0.1109 -1.8798 -1.8464
  173SOL     OW  761   3.522   2.375   1.020  0.0671 -0.0857 -0.1687
  173SOL    HW1  762   3.531   2.304   1.084 -0.8534 -0.6931 -0.6869
  173SOL    HW2  763   3.435   2.411   1.038  0.5910  1.0182  0.1896
  174SOL     OW  764   2.564   2.439   1.246 -0.1021 -0.2103  0.1193
  174SOL    HW1  765   2.621   2.498   1.196  0.2169  0.1370  0.8750
  174SOL    HW2  766   2.475   2.467   1.225  0.0456  0.3883  0.2970
  175SOL     OW  767   2.121   2.421   1.946 -0.2618 -0.2279 -0.1148
  175SOL    HW1  768   2.209   2.405   1.912  0.6751  3.0778  0.4076
  175SOL    HW2  769   2.101   2.343   1.998  2.7132 -0.7557  0.4130
  176SOL     OW  770   4.305   0.703   2.851 -0.3257 -0.6626  0.1767
  176SOL    HW1  771   4.260   0.741   2.927 -1.4279 -2.8796  0.7144
  176SOL    HW2  772   4.309   0.609   2.870  2.2504 -0.8796 -1.0892
  177SOL     OW  773   3.385   2.881   2.113  0.0021  0.4075  0.4119
  177SOL    HW1  774   3.418   2.962   2.153 -0.2285  1.7649 -1.9252
  177SOL    HW2  775   3.290   2.891   2.114 -0.0897 -0.4739  1.2968
  178SOL     OW  776   2.892   1.633  -0.014  0.1637  0.6046  0.0864
  178SOL    HW1  777   2.855   1.721  -0.021 -3.2015 -0.6766  0.4111
  178SOL    HW2  778   2.923   1.627   0.077 -2.2027  0.5644  0.9379
  179SOL     OW  779   0.819   1.245   1.163  0.0935 -0.2798 -0.3979
  179SOL    HW1  780   0.784   1.311   1.222 -0.3223  0.9082 -1.9252
  179SOL    HW2  781   0.879   1.292   1.106 -0.3156 -1.1741 -1.6145
  180SOL     OW  782   0.519   1.624   2.489  0.3025  0.2404 -0.6016
  180SOL    HW1  783   0.439   1.599   2.537  0.3529  1.6404  0.2778
  180SOL    HW2  784   0.566   1.542   2.478  0.7038 -0.0963  2.5814
  181SOL     OW  785   3.923   1.096   0.497  0.3433  0.2415 -0.2985
  181SOL    HW1  786   3.868   1.101   0.575  0.4482 -1.5802 -0.0848
  181SOL    HW2  787   3.990   1.164   0.512  1.0490 -0.8080  1.7652
  182SOL     OW  788   3.091   2.800   0.316  0.1392 -0.0253 -0.0414
  182SOL    HW1  789   3.055   2.725   0.268  0.1353 -1.1993  1.7068
  182SOL    HW2  790   3.169   2.824   0.266  0.9052 -2.0742  0.0533
  183SOL     OW  791   1.505   1.060   0.769  0.5261  0.1601 -0.6451
  183SOL    HW1  792   1.445   1.079   0.841 -0.4400 -1.4209 -0.9791
  183SOL    HW2  793   1.519   0.965   0.774  1.4162  0.2044 -1.7974
  184SOL     OW  794   3.865   2.842   0.514  0.4031 -0.3565 -0.2939
  184SOL    HW1  795   3.811   2.865   0.438  0.7164  0.2692 -0.3328
  184SOL    HW2  796   3.852   2.747   0.524 -0.6961 -0.2269 -0.2987
  185SOL     OW  797   3.668   1.130   1.349  0.0862 -0.4306 -0.1680
  185SOL    HW1  798   3.636   1.052   1.393  0.1035 -0.2893  0.0927
  185SOL    HW2  799   3.697   1.098   1.263 -3.0961 -0.1634 -1.4519
  186SOL     OW  800   2.660   2.620   2.327 -0.2881  0.7625 -0.0712
  186SOL    HW1  801   2.607   2.546   2.355 -0.9448  1.3414  0.2477
  186SOL    HW2  802   2.748   2.602   2.362 -0.0348 -0.6115 -1.3006
  187SOL     OW  803   3.557   0.058   2.634  0.2541  0.2302 -0.3574
  187SOL    HW1  804   3.604   0.141   2.636  0.3776  0.1520  0.3226
  187SOL    HW2  805   3.467   0.081   2.657 -0.5614  0.6711 -3.5307
  188SOL     OW  806   3.654   1.346   2.228 -0.3426 -0.4668  0.3237
  188SOL    HW1  807   3.719   1.276   2.215 -1.3553 -1.2286 -0.8255
  188SOL    HW2  808   3.694   1.403   2.293  0.3561 -2.3252  1.6123
  189SOL     OW  809   3.413   2.896   2.895  0.0143 -0.5868  0.5920
  189SOL    HW1  810   3.488   2.835   2.898  0.4395 -0.0297  1.3873
  189SOL    HW2  811   3.445   2.975   2.938 -0.6871  0.0491 -0.0430
  190SOL     OW  812   1.244   3.828   0.711  0.2792  0.0848  0.2446
  190SOL    HW1  813   1.247   3.840   0.616  0.9383 -1.0951  0.0868
  190SOL    HW2  814   1.151   3.824   0.732  0.0829 -1.7811 -0.7049
  191SOL     OW  815   4.327   1.505   2.261  0.0129  0.5809  0.0218
  191SOL    HW1  816   4.247   1.474   2.301 -0.7060  0.5287 -1.4012
  191SOL    HW2  817   4.397   1.466   2.313 -0.8735  0.3686  1.0779
  192SOL     OW  818   0.941   4.330   2.265 -0.1818  0.4109 -0.0040
  192SOL    HW1  819   0.991   4.371   2.335 -0.2529 -0.5598  0.6309
  192SOL    HW2  820   0.864   4.387   2.254 -0.7652 -0.0288  1.5083
  193SOL     OW  821   0.671   1.448   1.850 -0.0831 -0.4402 -0.2032
  193SOL    HW1  822   0.734   1.401   1.796 -0.4686  0.5605 -1.5887
  193SOL    HW2  823   0.592   1.394   1.848 -0.2194 -0.2280 -0.9968
  194SOL     OW  824   3.418   0.836   0.339  0.5781 -0.3383  0.1119
  194SOL    HW1  825   3.324   0.825   0.336  0.7538 -1.7938 -1.7665
  194SOL    HW2  826   3.438   0.852   0.431 -1.3098 -1.8405  0.8393
  195SOL     OW  827   1.428   0.043   2.152  0.4512 -0.2900 -0.4121
  195SOL    HW1  828   1.496  -0.013   2.113 -0.4464 -0.3714 -1.9518
  195SOL    HW2  829   1.353  -0.015   2.165  0.2073  0.0983 -0.0530
  196SOL     OW  830   2.532   1.406   1.294  0.2609 -0.3411 -0.4695
  196SOL    HW1  831   2.600   1.375   1.353 -0.0001  0.2244  0.1422
  196SOL    HW2  832   2.551   1.500   1.284  0.6521 -0.5422 -1.7541
  197SOL     OW  833   1.701   0.714   2.213  0.6622 -0.5147  0.0190
  197SOL    HW1  834   1.674   0.660   2.288  0.4133 -0.1192  0.2140
  197SOL    HW2  835   1.619   0.750   2.179  0.8230 -0.3225 -0.1632
  198SOL     OW  836   1.665   2.574   2.948  0.2064 -0.4493  0.6322
  198SOL    HW1  837   1.744   2.607   2.991 -0.4224 -0.1726  1.5915
  198SOL    HW2  838   1.606   2.550   3.019  0.4489 -3.2989 -0.0113
  199SOL     OW  839   3.080   2.378   0.185 -0.2255 -0.3918  0.3690
  199SOL    HW1  840   3.122   2.320   0.121  0.0411 -0.2118  0.3810
  199SOL    HW2  841   3.088   2.332   0.268 -0.8145 -0.7550  0.2382
  200SOL     OW  842   1.721   0.471   1.068  0.4258  0.0515  0.1731
  200SOL    HW1  843   1.650   0.496   1.126 -0.5866 -0.9905 -0.5639
  200SOL    HW2  844   1.722   0.538   1.000  1.2101  0.9324  1.0237
  201SOL     OW  845   3.137   1.986   1.202 -0.6255 -0.0082  0.1865
  201SOL    HW1  846   3.177   2.073   1.200  0.7894 -0.5706 -3.2187
  201SOL    HW2  847   3.044   2.002   1.191 -0.3021  1.1381 -1.1972
  202SOL     OW  848   3.027   1.022   1.312 -0.7040 -0.2803  0.0236
  202SOL    HW1  849   2.983   0.979   1.238 -0.6076 -0.4449  0.0624
  202SOL    HW2  850   3.004   1.115   1.302 -0.9020 -0.3375 -0.0674
  203SOL     OW  851   1.701   2.308   1.398 -1.0244  0.4248  0.3012
  203SOL    HW1  852   1.641   2.366   1.351  1.3161  1.6277 -1.4090
  203SOL    HW2  853   1.652   2.227   1.411 -3.3457  1.6964 -0.0326
  204SOL     OW  854   0.636   4.051   2.804  0.4829 -0.1142 -0.0146
  204SOL    HW1  855   0.672   4.098   2.729  0.6866 -0.2526 -0.0045
  204SOL    HW2  856   0.542   4.049   2.789  0.5560 -0.4420 -0.4383
  205SOL     OW  857   0.191   3.844   2.364 -0.0499 -0.4926 -0.5780
  205SOL    HW1  858   0.214   3.893   2.443  0.9136 -0.4323 -0.8805
  205SOL    HW2  859   0.193   3.752   2.391 -0.8478 -0.4264 -0.2631
  206SOL     OW  860   2.276   2.642   2.434 -0.3352 -0.3455  0.1491
  206SOL    HW1  861   2.273   2.561   2.383 -1.8327 -1.6208  2.1274
  206SOL    HW2  862   2.320   2.618   2.515 -0.7051  0.8634  0.7317
  207SOL     OW  863   3.767   2.587   0.976 -0.5994 -0.0332  0.3438
  207SOL    HW1  864   3.754   2.634   0.893 -2.0582  0.1423  0.6340
  207SOL    HW2  865   3.683   2.543   0.991 -0.7750  0.8664  2.3012
  208SOL     OW  866   2.029   4.033   1.242 -0.6584  0.0796  0.1677
  208SOL    HW1  867   2.093   3.978   1.286  0.3251  0.9215 -0.1762
  208SOL    HW2  868   1.988   4.084   1.312  0.2935  0.7948  0.2189
  209SOL     OW  869   4.073   3.224   0.500  0.6115 -0.4934 -0.5972
  209SOL    HW1  870   4.062   3.270   0.417 -0.4247 -1.3892 -0.9786
  209SOL    HW2  871   4.006   3.261   0.557  1.4930  0.3109 -0.0404
  210SOL     OW  872   0.170   2.595   2.041 -0.0321  0.2908 -0.0852
  210SOL    HW1  873   0.258   2.570   2.011  0.7839  0.0360  2.2723
  210SOL    HW2  874   0.124   2.512   2.049 -0.2050  0.3466 -0.4833
  211SOL     OW  875   1.460   1.863   0.828 -0.1521 -0.0906  0.1630
  211SOL    HW1  876   1.482   1.925   0.759 -1.5070  0.6495  0.3775
  211SOL    HW2  877   1.448   1.779   0.782 -1.0300  0.3904 -0.5165
  212SOL     OW  878   0.027   2.403   2.261 -0.0809  0.8243  0.4089
  212SOL    HW1  879   0.052   2.311   2.250  0.8727  1.1595 -0.3469
  212SOL    HW2  880   0.084   2.435   2.331 -0.0981  0.9582  0.3625
  213SOL     OW  881   2.510   3.491   2.664 -0.1101 -0.4270  0.6266
  213SOL    HW1  882   2.596   3.517   2.632  0.3056 -0.7583  1.4451
  213SOL    HW2  883   2.506   3.396   2.649  1.0798 -1.0628  3.6616
  214SOL     OW  884   2.788   0.860   2.803  0.4375  0.1216 -0.1911
  214SOL    HW1  885   2.773   0.943   2.759  0.7945 -0.6512 -1.8497
  214SOL    HW2  886   2.882   0.860   2.823  0.6371 -0.2821 -1.0887
  215SOL     OW  887   0.005   2.169   0.368  0.5143 -0.2349  0.0992
  215SOL    HW1  888  -0.032   2.222   0.439  0.4137  0.2485 -0.3119
  215SOL    HW2  889   0.099   2.174   0.382  0.4520 -2.1416  1.6417
  216SOL     OW  890   2.688   0.551   1.167 -0.2171  0.3226  0.0459
  216SOL    HW1  891   2.608   0.510   1.199  0.5037 -1.4075 -0.2307
  216SOL    HW2  892   2.730   0.587   1.246 -1.4722  1.6930  0.1203
  217SOL     OW  893   0.741   2.658   0.726  0.0186 -0.0044  0.0074
  217SOL    HW1  894   0.812   2.639   0.665  0.8222  0.5903  0.7401
  217SOL    HW2  895   0.708   2.744   0.698 -1.1329 -0.7170 -0.9719
  218SOL     OW  896   0.231   3.222   0.729  0.7312  0.5319 -0.3751
  218SOL    HW1  897   0.156   3.175   0.765 -0.6288  2.1756 -0.9007
  218SOL    HW2  898   0.258   3.281   0.799 -0.9046  2.5916 -1.3516
  219SOL     OW  899   1.188   0.191   1.567 -0.7447  0.2223  0.2339
  219SOL    HW1  900   1.227   0.141   1.639 -1.3618 -1.2927 -0.4450
  219SOL    HW2  901   1.228   0.278   1.574  0.4928 -0.3973  1.3648
  220SOL     OW  902   1.287   4.136   0.271  0.0465  0.1666  0.2073
  220SOL    HW1  903   1.374   4.176   0.261 -1.3390  3.1474 -1.2772
  220SOL    HW2  904   1.265   4.147   0.363  0.6424  0.7779  0.2818
  221SOL     OW  905   2.211   2.456   2.264 -0.1244  0.3865  0.1540
  221SOL    HW1  906   2.136   2.412   2.305  0.5463 -0.0647  0.9313
  221SOL    HW2  907   2.272   2.386   2.243  0.8218  0.8962  1.1041
  222SOL     OW  908   2.310   0.818   1.796 -0.4054 -0.0829  0.0195
  222SOL    HW1  909   2.330   0.868   1.874  3.3782 -1.1995 -0.0249
  222SOL    HW2  910   2.309   0.727   1.825  2.5518 -0.6620 -1.2692
  223SOL     OW  911   0.720   1.773   2.619 -0.4057 -0.4096 -0.1071
  223SOL    HW1  912   0.665   1.729   2.555  0.4879 -0.8814 -0.5719
  223SOL    HW2  913   0.705   1.867   2.603  0.5422 -0.5067 -1.6815
  224SOL     OW  914   1.727   1.213   0.970  0.1641  0.1931  0.0059
  224SOL    HW1  915   1.805   1.255   0.935 -0.6774 -0.8882 -3.6559
  224SOL    HW2  916   1.655   1.269   0.941 -0.5894 -0.3875  0.7228
  225SOL     OW  917   1.604   1.668   0.993  0.1276 -0.1231 -0.3464
  225SOL    HW1  918   1.642   1.704   1.073 -0.7909 -0.1779  0.1156
  225SOL    HW2  919   1.574   1.745   0.944 -0.3983 -0.1615 -0.0860
  226SOL     OW  920   2.051   3.976   2.288  0.6724  0.9295  0.0675
  226SOL    HW1  921   2.037   3.958   2.381  1.2244  1.1272  0.1917
  226SOL    HW2  922   2.059   4.072   2.284  0.8883  0.9014 -0.1490
  227SOL     OW  923   0.874   1.878   2.077 -0.3163  0.1020  0.6841
  227SOL    HW1  924   0.809   1.835   2.023 -0.5166  2.3112 -0.9752
  227SOL    HW2  925   0.839   1.873   2.166 -1.1353 -1.5386  0.3092
  228SOL     OW  926   0.887   2.817   2.126 -0.4348 -0.1019  0.0321
  228SOL    HW1  927   0.960   2.873   2.152 -1.0577  0.0719  1.5343
  228SOL    HW2  928   0.927   2.731   2.113  0.2892  0.3470 -0.8133
  229SOL     OW  929   1.860   1.983   0.229  0.1457  0.4395  0.2462
  229SOL    HW1  930   1.811   1.940   0.159 -0.2262  1.3787 -0.0813
  229SOL    HW2  931   1.865   2.074   0.203  0.0435  0.8023  1.4212
  230SOL     OW  932   4.302   0.466   1.877 -0.7469  0.2372 -0.2507
  230SOL    HW1  933   4.221   0.477   1.927 -0.2794 -0.5772  0.7160
  230SOL    HW2  934   4.283   0.506   1.792 -1.5437  1.6903  0.5722
  231SOL     OW  935   0.813   2.717   1.581  0.5325 -0.3172  0.2409
  231SOL    HW1  936   0.894   2.676   1.551  0.0434 -0.3616 -1.0769
  231SOL    HW2  937   0.749   2.699   1.512 -0.7694 -0.7581  1.4955
  232SOL     OW  938   1.080   3.827   2.747  0.9135  0.1214 -0.3606
  232SOL    HW1  939   0.985   3.841   2.750  0.6891 -1.2367 -0.5584
  232SOL    HW2  940   1.093   3.761   2.679  1.9835  0.1294 -0.1866
  233SOL     OW  941   2.587   4.159   3.018 -0.1059  0.6821  0.7560
  233SOL    HW1  942   2.620   4.161   2.928 -1.9294 -1.6006 -0.0764
  233SOL    HW2  943   2.630   4.083   3.057 -0.6601  0.5895  1.2045
  234SOL     OW  944   3.667   0.689   2.723 -0.0863  0.4332 -0.1472
  234SOL    HW1  945   3.661   0.662   2.814 -2.0800 -0.0639 -0.3773
  234SOL    HW2  946   3.576   0.702   2.696  0.3036 -1.2767 -2.5979
  235SOL     OW  947   1.140   2.373   0.915 -0.0007  0.4692 -0.2740
  235SOL    HW1  948   1.059   2.326   0.895 -1.1555  2.0459  0.5171
  235SOL    HW2  949   1.197   2.307   0.954 -1.2943 -0.4543  0.1273
  236SOL     OW  950   3.058   4.338   0.566 -0.6776 -0.2049  0.2697
  236SOL    HW1  951   2.972   4.296   0.558  0.2785 -2.5931  1.3480
  236SOL    HW2  952   3.117   4.280   0.518  0.4631  0.9187  0.2813
  237SOL     OW  953   4.103   1.577   0.776  0.2389 -0.4526 -0.0421
  237SOL    HW1  954   4.197   1.579   0.757  0.3472 -1.1489  0.3797
  237SOL    HW2  955   4.091   1.647   0.841  0.0367  1.2375 -1.7893
  238SOL     OW  956   3.283   0.796   0.709 -0.5185  0.8620  0.0359
  238SOL    HW1  957   3.346   0.852   0.662 -0.5049  1.1062  0.3404
  238SOL    HW2  958   3.252   0.851   0.781 -0.5476  0.4941  0.3063
  239SOL     OW  959   1.293   0.843   1.223  0.1624 -0.7471 -0.0862
  239SOL    HW1  960   1.208   0.803   1.203 -0.8117  1.4647 -0.6916
  239SOL    HW2  961   1.278   0.891   1.305  0.2683  1.0736 -1.0828
  240SOL     OW  962   2.381   0.596   1.985  0.4924 -0.0495  0.3106
  240SOL    HW1  963   2.473   0.623   1.976  0.3487  0.3261 -0.1005
  240SOL    HW2  964   2.384   0.500   1.983  0.8239 -0.0330 -0.3001
  241SOL     OW  965   4.399   2.094   2.258 -0.0789  0.0230 -1.1753
  241SOL    HW1  966   4.312   2.104   2.298 -0.2180 -0.2334 -1.4078
  241SOL    HW2  967   4.432   2.011   2.293  0.2893  0.3713 -0.6899
  242SOL     OW  968   1.161   2.778   2.750  0.4376 -0.5004 -0.3405
  242SOL    HW1  969   1.081   2.831   2.746  0.0769 -1.0507 -0.5344
  242SOL    HW2  970   1.222   2.823   2.691  0.7019  0.6038  0.7401
  243SOL     OW  971   0.415   1.084   2.763 -0.3864 -0.1402  0.1754
  243SOL    HW1  972   0.377   1.067   2.849 -1.8787 -0.1806 -0.4732
  243SOL    HW2  973   0.469   1.007   2.746 -2.7840 -1.7955 -0.3730
  244SOL     OW  974   2.304   1.584   1.431 -0.1974  0.6750 -0.9185
  244SOL    HW1  975   2.274   1.498   1.400 -1.2233 -0.0743  1.8591
  244SOL    HW2  976   2.230   1.617   1.482  1.1200  2.0846  0.1283
  245SOL     OW  977   3.135   0.129   0.403  0.3065  0.3849 -0.2302
  245SOL    HW1  978   3.136   0.048   0.454  0.1714 -0.2529 -1.2093
  245SOL    HW2  979   3.043   0.152   0.396  0.3808  0.9443  0.5221
  246SOL     OW  980   3.624   2.145   1.872 -0.1545  0.3275  0.0985
  246SOL    HW1  981   3.689   2.142   1.942 -0.2246  0.4329  0.1696
  246SOL    HW2  982   3.585   2.058   1.871 -0.3715  0.4193  0.4008
  247SOL     OW  983   1.730   3.418   0.597  0.9016  0.3344 -0.5542
  247SOL    HW1  984   1.785   3.377   0.664 -1.0252 -0.3581  0.6804
  247SOL    HW2  985   1.732   3.512   0.618 -1.4824 -0.0714  2.0059
  248SOL     OW  986   0.281   2.166   0.086  0.0760  0.4139  0.5105
  248SOL    HW1  987   0.326   2.101   0.031 -0.6186  1.5646 -1.5340
  248SOL    HW2  988   0.205   2.120   0.121  0.7147 -0.4428  0.7993
  249SOL     OW  989   2.520   2.629   0.800 -0.0787 -0.2362 -0.3812
  249SOL    HW1  990   2.584   2.687   0.757  0.1802  0.8409  1.3418
  249SOL    HW2  991   2.523   2.549   0.749  1.4326  0.3822 -1.3605
  250SOL     OW  992   4.385   4.234   0.391  0.3202 -0.2630 -0.4826
  250SOL    HW1  993   4.431   4.227   0.307  0.1281 -0.8277 -0.5440
  250SOL    HW2  994   4.308   4.178   0.381  0.6608 -0.8872  0.3155
  251SOL     OW  995   4.407   3.036   0.780 -0.5074  1.0356  0.2127
  251SOL    HW1  996   4.349   3.065   0.850 -0.0402  3.4622 -0.3175
  251SOL    HW2  997   4.368   3.070   0.699  0.1266  0.1905 -0.4795
  252SOL     OW  998   0.874   2.961   1.665 -0.2801  0.2942 -0.6922
  252SOL    HW1  999   0.860   2.870   1.637  0.8048  0.3604 -1.5029
  252SOL    HW2 1000   0.798   2.980   1.721  0.7938 -2.0063  1.7795
  253SOL     OW 1001   3.096   2.602   2.048  0.3786  0.6640  0.3915
  253SOL    HW1 1002   3.046   2.531   2.008  0.2742  1.0243 -0.1335
  253SOL    HW2 1003   3.147   2.639   1.976 -0.0987  1.5662  0.4995
  254SOL     OW 1004   0.928   3.353   0.558  0.1177  0.0439 -0.0586
  254SOL    HW1 1005   1.018   3.355   0.591  0.2429 -0.8585 -0.3176
  254SOL    HW2 1006   0.931   3.403   0.476  0.2599  0.4825  0.2108
  255SOL     OW 1007   0.554   2.227   0.411 -0.0054 -0.1068 -0.5883
  255SOL    HW1 1008   0.562   2.261   0.501 -1.9403  0.3203 -0.5415
  255SOL    HW2 1009   0.643   2.199   0.389  0.5544 -0.1265  1.4175
  256SOL     OW 1010   4.292   2.359   1.773  0.4275  0.1616  0.0343
  256SOL    HW1 1011   4.284   2.385   1.864 -0.8000 -0.9911  0.2782
  256SOL    HW2 1012   4.385   2.371   1.753  0.9864 -0.8743  1.8430
  257SOL     OW 1013   3.725   0.286   1.966  0.3186 -0.2559  0.3561
  257SOL    HW1 1014   3.778   0.290   1.886  0.1425  0.5768  0.2692
  257SOL    HW2 1015   3.691   0.197   1.968 -1.3280  0.2396 -1.5987
  258SOL     OW 1016   0.959   1.882   1.263 -0.0116  0.0023 -0.0207
  258SOL    HW1 1017   0.942   1.854   1.173  1.0853 -0.5999 -0.0552
  258SOL    HW2 1018   1.017   1.958   1.255  0.1759 -0.1177  0.1754
  259SOL     OW 1019   3.728   1.597   2.298  0.3762 -0.2646  0.1764
  259SOL    HW1 1020   3.710   1.594   2.204 -1.2880 -0.4683  0.4706
  259SOL    HW2 1021   3.822   1.614   2.304  1.5789 -4.7393 -1.5627
  260SOL     OW 1022   3.167   1.698   1.705 -0.0656 -0.7813  0.2020
  260SOL    HW1 1023   3.104   1.626   1.716 -1.7396  0.3681 -1.2877
  260SOL    HW2 1024   3.164   1.744   1.789 -1.4687 -0.5763  0.0682
  261SOL     OW 1025   0.413   2.205   1.887  0.1665 -0.3882 -0.5250
  261SOL    HW1 1026   0.390   2.112   1.878 -2.5621  0.2618 -1.1862
  261SOL    HW2 1027   0.445   2.229   1.800  1.6816 -0.8696 -0.1225
  262SOL     OW 1028   3.270   0.913   0.050  0.3167 -0.4143 -0.6058
  262SOL    HW1 1029   3.283   0.887   0.141  1.9127  0.5537 -0.5162
  262SOL    HW2 1030   3.187   0.962   0.050  0.5702  0.0400  0.4317
  263SOL     OW 1031   0.363   4.307   2.124  0.4805 -0.3770  0.4915
  263SOL    HW1 1032   0.407   4.318   2.208  2.0830 -0.9646 -0.2345
  263SOL    HW2 1033   0.335   4.396   2.101  0.2024 -0.1773  1.5392
  264SOL     OW 1034   4.150   4.113   0.381  0.0734 -0.0543  0.1095
  264SOL    HW1 1035   4.118   4.023   0.378  0.1534 -0.0840  0.1587
  264SOL    HW2 1036   4.074   4.166   0.358  0.8964 -0.3182 -4.1570
  265SOL     OW 1037   1.996   1.691   2.678 -0.2604  0.7820 -0.0342
  265SOL    HW1 1038   2.018   1.698   2.585 -1.9325  0.3783 -0.5014
  265SOL    HW2 1039   1.901   1.705   2.681 -0.5863 -1.2747  1.3475
  266SOL     OW 1040   1.234   0.612   1.717  0.0121 -0.0230 -0.4515
  266SOL    HW1 1041   1.215   0.601   1.810  2.0994  0.6517  0.1203
  266SOL    HW2 1042   1.157   0.577   1.672 -0.5701 -1.4151  1.4946
  267SOL     OW 1043   2.129   3.336   2.277 -0.3868  0.2277 -0.2313
  267SOL    HW1 1044   2.186   3.259   2.279 -0.5352  0.1198 -0.0310
  267SOL    HW2 1045   2.095   3.342   2.366  1.4747  1.9369  0.4088
  268SOL     OW 1046   1.278   3.873   1.411  0.2355 -0.3305  0.0570
  268SOL    HW1 1047   1.320   3.955   1.437 -1.5447  0.5735  0.2274
  268SOL    HW2 1048   1.287   3.816   1.488  2.1437 -0.6224 -0.3252
  269SOL     OW 1049   3.249   1.673   2.170  0.4705 -0.5768  0.1685
  269SOL    HW1 1050   3.328   1.724   2.155 -0.1297  0.5359  0.6839
  269SOL    HW2 1051   3.195   1.728   2.226 -1.6522 -0.3031 -1.9595
  270SOL     OW 1052   2.948   3.491   0.759  0.5804  0.1680  0.2989
  270SOL    HW1 1053   2.921   3.402   0.734 -1.6650  0.1054  2.5935
  270SOL    HW2 1054   2.914   3.547   0.689 -1.4124 -0.4318  0.7405
  271SOL     OW 1055   1.799   0.818   2.620  0.1850 -0.0578  0.5792
  271SOL    HW1 1056   1.821   0.893   2.565  0.2480 -1.1256 -0.8900
  271SOL    HW2 1057   1.877   0.804   2.674  0.5507  0.3118  0.1500
  272SOL     OW 1058   0.135   4.218   2.380  0.0525  0.3990 -0.0739
  272SOL    HW1 1059   0.156   4.189   2.291  2.4708 -0.8981  0.8315
  272SOL    HW2 1060   0.151   4.142   2.435  0.2117  1.6222  1.6642
  273SOL     OW 1061   0.475   0.273   0.031 -0.6137 -0.0678 -0.6430
  273SOL    HW1 1062   0.483   0.177   0.034 -0.4070 -0.0399  0.5014
  273SOL    HW2 1063   0.528   0.299  -0.044  1.6106 -0.6809  0.6198
  274SOL     OW 1064   1.549   2.450   2.066 -0.2583 -0.5584  0.2880
  274SOL    HW1 1065   1.622   2.410   2.019 -0.7258 -0.7413 -0.3007
  274SOL    HW2 1066   1.590   2.504   2.133  0.4884  0.5473 -1.0025
  275SOL     OW 1067   3.948   0.831   0.436  0.4076 -0.6568  0.5820
  275SOL    HW1 1068   3.969   0.810   0.528  1.0837  0.0592  0.6009
  275SOL    HW2 1069   3.926   0.924   0.437  2.6662 -0.0332 -0.2989
  276SOL     OW 1070   0.030   0.451   2.761 -0.3968  0.0221  0.4058
  276SOL    HW1 1071   0.078   0.408   2.691  0.1737  0.8456  0.2781
  276SOL    HW2 1072   0.097   0.475   2.826 -0.4752  1.9202 -0.1523
  277SOL     OW 1073   1.214   3.236   1.466 -0.0267 -0.3819 -0.0646
  277SOL    HW1 1074   1.290   3.177   1.468  0.1263 -0.2576 -1.4248
  277SOL    HW2 1075   1.139   3.177   1.474  0.1672 -0.6107  0.1279
  278SOL     OW 1076   1.063   0.661   1.170  0.0338 -0.3213  0.2996
  278SOL    HW1 1077   1.052   0.634   1.079  2.0620  1.8920 -0.6914
  278SOL    HW2 1078   0.977   0.695   1.196 -0.4611 -0.6220 -0.8925
  279SOL     OW 1079   2.723   0.037   0.853  0.1968 -0.4722 -0.1914
  279SOL    HW1 1080   2.700   0.065   0.765  1.4258 -0.2334 -0.4544
  279SOL    HW2 1081   2.726   0.119   0.904  3.4804 -0.0483 -0.8887
  280SOL     OW 1082   2.352   1.256   2.994  0.0162  0.2477  0.4223
  280SOL    HW1 1083   2.366   1.334   3.048  0.2691 -0.1084  0.8797
  280SOL    HW2 1084   2.425   1.257   2.932  0.3485  0.0628  0.8058
  281SOL     OW 1085   2.217   4.141   2.656  0.2288  0.6867 -0.6856
  281SOL    HW1 1086   2.211   4.218   2.599  0.8235  1.6578  0.5051
  281SOL    HW2 1087   2.155   4.160   2.727 -0.7527 -0.6554 -1.1458
  282SOL     OW 1088   4.205   0.817   0.826 -0.3978  0.2464  0.4294
  282SOL    HW1 1089   4.214   0.722   0.814 -2.9215 -0.0755  0.5008
  282SOL    HW2 1090   4.277   0.855   0.776 -0.1807 -1.6759 -0.7955
  283SOL     OW 1091   3.320   1.950  -0.013  0.4460  0.4766  0.6093
  283SOL    HW1 1092   3.256   1.887   0.020 -1.1138  1.0364 -1.2206
  283SOL    HW2 1093   3.400   1.929   0.035 -0.7368 -1.0893  2.0337
  284SOL     OW 1094   1.718   4.255   2.374  0.0757  0.2494 -0.3372
  284SOL    HW1 1095   1.746   4.344   2.350 -2.6497  0.6317 -2.6522
  284SOL    HW2 1096   1.701   4.212   2.290  0.5349 -2.2201  0.7575
  285SOL     OW 1097   3.513   4.142   0.504  0.4131  0.3262 -0.1667
  285SOL    HW1 1098   3.439   4.107   0.454  0.3116  0.4948 -0.1345
  285SOL    HW2 1099   3.536   4.223   0.459 -0.5490  1.1996  0.8444
  286SOL     OW 1100   2.750   3.174   3.085  0.0925  0.4466  0.7088
  286SOL    HW1 1101   2.705   3.231   3.147  0.2409 -0.5292  1.7513
  286SOL    HW2 1102   2.843   3.186   3.104  0.0951 -1.3002  2.0756
  287SOL     OW 1103   0.869   2.928   1.216 -0.5928 -0.0779 -0.1902
  287SOL    HW1 1104   0.905   2.983   1.146 -2.2344 -0.0772 -1.1084
  287SOL    HW2 1105   0.775   2.925   1.196 -0.5483 -3.4607 -0.3322
  288SOL     OW 1106   1.309   1.064   2.473 -0.3092 -1.4506 -0.0400
  288SOL    HW1 1107   1.378   1.000   2.452 -0.5329 -1.5885 -0.3655
  288SOL    HW2 1108   1.237   1.041   2.415  0.2736  0.2658 -1.5072
  289SOL     OW 1109   0.807   4.418   1.039 -0.1715 -0.3375  0.1620
  289SOL    HW1 1110   0.900   4.427   1.062 -0.0682 -1.4646  0.2317
  289SOL    HW2 1111   0.767   4.379   1.116 -0.4720 -0.9846 -0.3174
  290SOL     OW 1112   1.194   2.634   1.107  0.1026  0.0127 -0.0277
  290SOL    HW1 1113   1.208   2.589   1.190  1.4757 -0.5559 -0.5420
  290SOL    HW2 1114   1.145   2.571   1.053  1.7115 -0.7775 -0.6224
  291SOL     OW 1115   3.736   0.211   1.641  0.3880 -0.0392 -0.5603
  291SOL    HW1 1116   3.685   0.179   1.566  1.8034 -0.4767 -1.3776
  291SOL    HW2 1117   3.802   0.143   1.655  0.7209  0.4870  0.4978
  292SOL     OW 1118   3.842   2.931   2.865  0.0407  0.1026  0.2239
  292SOL    HW1 1119   3.815   2.950   2.775 -3.0884  1.0371  1.2220
  292SOL    HW2 1120   3.929   2.893   2.857  0.4228  1.3872 -3.0758
  293SOL     OW 1121   1.535   4.057   0.887  0.0811 -0.0467 -0.3574
  293SOL    HW1 1122   1.613   4.083   0.840  0.6925 -0.1300  0.5778
  293SOL    HW2 1123   1.510   3.973   0.848  2.1635 -1.4956  1.2034
  294SOL     OW 1124   4.169   2.546   2.754  0.0282  0.2976  0.0715
  294SOL    HW1 1125   4.185   2.462   2.710 -1.1414 -1.2118  2.3124
  294SOL    HW2 1126   4.091   2.581   2.712 -1.7676 -1.6886  1.5823
  295SOL     OW 1127   0.871   1.310   1.730  0.4490  0.0495  0.2170
  295SOL    HW1 1128   0.948   1.362   1.756 -0.2205  0.4425  1.4746
  295SOL    HW2 1129   0.865   1.242   1.797  0.2530 -0.5570 -0.4149
  296SOL     OW 1130   0.887   3.296   1.947  0.1088 -0.3860  0.4935
  296SOL    HW1 1131   0.796   3.266   1.948  0.9728 -3.2581  0.1586
  296SOL    HW2 1132   0.881   3.387   1.916 -2.8046  0.4238  2.9027
  297SOL     OW 1133   3.535   0.473   1.218  0.2862  0.5854  0.5957
  297SOL    HW1 1134   3.468   0.490   1.284  0.4511  2.3116  0.3616
  297SOL    HW2 1135   3.579   0.557   1.206  0.3409  0.3098 -1.6094
  298SOL     OW 1136   1.256   4.252   0.523  0.5964  0.0321 -1.0902
  298SOL    HW1 1137   1.348   4.237   0.543  0.1086 -1.2461  0.3571
  298SOL    HW2 1138   1.216   4.272   0.608 -0.7795 -1.2313 -1.4045
  299SOL     OW 1139   3.564   2.059   0.112 -0.2286 -0.5453  0.0301
  299SOL    HW1 1140   3.527   2.094   0.193 -0.5429  0.1744 -0.4054
  299SOL    HW2 1141   3.573   2.136   0.055  1.1926 -0.8376 -0.1686
  300SOL     OW 1142   0.909   3.320   0.856 -0.3503  0.1061  0.4216
  300SOL    HW1 1143   0.915   3.286   0.766  0.0975  1.6889 -0.1849
  300SOL    HW2 1144   0.820   3.300   0.883 -0.3681 -0.7482 -0.2210
  301SOL     OW 1145   1.257   3.696   2.192  0.4369 -0.3519  0.6809
  301SOL    HW1 1146   1.167   3.675   2.216  0.1839 -0.3677 -0.2537
  301SOL    HW2 1147   1.272   3.648   2.110  0.1306  2.3579 -1.0836
  302SOL     OW 1148   3.563   0.120   0.307  0.0921  0.0473 -0.1829
  302SOL    HW1 1149   3.515   0.202   0.294  0.3306  0.0890 -0.8374
  302SOL    HW2 1150   3.567   0.110   0.402 -0.4718  0.4777 -0.1062
  303SOL     OW 1151   3.952   2.573   0.384 -0.2520  0.6319 -0.4476
  303SOL    HW1 1152   3.860   2.562   0.360 -0.1222  0.8373 -1.0535
  303SOL    HW2 1153   3.994   2.492   0.356 -0.7849 -0.9355  2.7534
  304SOL     OW 1154   2.780   1.888   0.558 -0.3034  0.2234  0.5612
  304SOL    HW1 1155   2.749   1.801   0.584 -1.0820  0.1212 -0.6535
  304SOL    HW2 1156   2.875   1.880   0.558 -0.3244 -0.2430  1.7153
  305SOL     OW 1157   2.286   3.753   0.181  0.0005 -0.3393 -0.0728
  305SOL    HW1 1158   2.230   3.676   0.179 -0.1798 -0.3069  1.7850
  305SOL    HW2 1159   2.365   3.727   0.134  0.0623 -1.7814  0.7702
  306SOL     OW 1160   3.177   2.998   2.799 -0.3005 -0.9286 -0.2698
  306SOL    HW1 1161   3.200   3.089   2.782  0.8649 -1.2064 -0.2658
  306SOL    HW2 1162   3.254   2.961   2.843 -0.7754 -1.8993 -0.2124
  307SOL     OW 1163   0.382   1.537   2.054  0.2067 -0.3411  0.1249
  307SOL    HW1 1164   0.291   1.553   2.079  0.0924 -0.0913 -0.4340
  307SOL    HW2 1165   0.382   1.447   2.020  0.6092 -1.1560  2.1311
  308SOL     OW 1166   2.076   1.938   2.757 -0.2287  0.5914  0.0825
  308SOL    HW1 1167   1.987   1.966   2.732  0.2648  1.5149 -0.7200
  308SOL    HW2 1168   2.071   1.842   2.756 -1.5527  0.6090  1.3424
  309SOL     OW 1169   4.297   1.637   2.714 -0.1211 -0.3246  0.0654
  309SOL    HW1 1170   4.356   1.621   2.788  1.0733 -0.5706 -0.9030
  309SOL    HW2 1171   4.355   1.651   2.640 -1.2906 -0.7228 -0.9662
  310SOL     OW 1172   0.250   3.223   0.469 -0.3122 -0.8937 -0.0018
  310SOL    HW1 1173   0.230   3.311   0.438 -0.0479 -0.6866  0.3954
  310SOL    HW2 1174   0.281   3.236   0.559 -0.1000 -1.3731  0.0001
  311SOL     OW 1175   3.519   1.936   2.777 -0.1900  0.1031 -0.9085
  311SOL    HW1 1176   3.462   2.003   2.815  1.2672  1.4125 -0.9383
  311SOL    HW2 1177   3.471   1.905   2.700 -1.4567  0.1920 -0.1830
  312SOL     OW 1178   1.543   1.773   2.073  0.6812 -0.0863  0.6027
  312SOL    HW1 1179   1.452   1.802   2.065  0.6366 -0.3820 -0.0441
  312SOL    HW2 1180   1.589   1.848   2.109  0.1909  0.0872  0.8825
  313SOL     OW 1181   1.650   2.460   1.663 -0.4729  0.5857 -0.3178
  313SOL    HW1 1182   1.671   2.457   1.570 -0.5243  1.1527 -0.3515
  313SOL    HW2 1183   1.735   2.463   1.707 -0.3926 -1.5555 -0.2516
  314SOL     OW 1184   3.240   3.227   0.809  0.1462 -0.0272  0.0194
  314SOL    HW1 1185   3.258   3.271   0.726  2.4437  0.3127  0.6282
  314SOL    HW2 1186   3.286   3.279   0.874 -2.2520  0.1486  1.6802
  315SOL     OW 1187   0.918   2.934   0.608  0.1940 -0.2604  0.0313
  315SOL    HW1 1188   0.860   2.999   0.648  1.5600  0.6682  0.5952
  315SOL    HW2 1189   1.002   2.947   0.651  0.7880 -1.7021 -0.6193
  316SOL     OW 1190   0.365   1.771   3.135 -0.0403 -0.1107 -0.2397
  316SOL    HW1 1191   0.338   1.679   3.136 -2.4737  0.5185 -1.2058
  316SOL    HW2 1192   0.388   1.789   3.044 -0.6553  0.5014 -0.2846
  317SOL     OW 1193   3.448   1.164   0.164  1.1569 -0.2175 -0.0532
  317SOL    HW1 1194   3.447   1.208   0.080  1.1501  0.6785  0.4056
  317SOL    HW2 1195   3.360   1.175   0.198  0.7161 -1.8857 -0.5775
  318SOL     OW 1196   1.584   0.029   1.604  0.1419  0.7265  0.4424
  318SOL    HW1 1197   1.580   0.095   1.674 -1.2115  0.2689  0.8186
  318SOL    HW2 1198   1.678   0.012   1.594  0.6705  3.6716 -0.6088
  319SOL     OW 1199   0.613   1.155   2.346  0.4427 -0.1538  0.2910
  319SOL    HW1 1200   0.668   1.162   2.423 -0.9645  0.9166  1.2541
  319SOL    HW2 1201   0.674   1.150   2.273  1.8416  1.9377  1.2270
  320SOL     OW 1202   1.622   0.551   0.490  0.2301  0.6520  0.2757
  320SOL    HW1 1203   1.611   0.517   0.401  2.8899 -0.0662  0.1435
  320SOL    HW2 1204   1.607   0.645   0.482 -2.8610  0.2221 -0.2121
  321SOL     OW 1205   0.377   1.655   1.786 -0.9940  0.2727  0.2170
  321SOL    HW1 1206   0.302   1.603   1.759  0.1575  0.2342 -3.5201
  321SOL    HW2 1207   0.399   1.623   1.874 -3.7450 -1.4774  0.3650
  322SOL     OW 1208   0.099   1.782   2.618  0.2219  0.0614  0.8160
  322SOL    HW1 1209   0.166   1.719   2.646 -0.2892  0.0041  1.9733
  322SOL    HW2 1210   0.103   1.852   2.683 -1.3175 -0.2990  1.3614
  323SOL     OW 1211   1.936   2.832   2.056  0.1378  0.7500  0.0401
  323SOL    HW1 1212   1.923   2.803   2.146 -0.7926 -0.5283 -0.4775
  323SOL    HW2 1213   2.014   2.785   2.026 -1.2161 -1.1644 -0.7116
  324SOL     OW 1214   2.694   3.992   0.854  0.3117 -0.1214 -0.2954
  324SOL    HW1 1215   2.729   3.905   0.876 -0.2018  0.2635  2.2811
  324SOL    HW2 1216   2.770   4.050   0.859  0.3824 -0.1801 -0.6211
  325SOL     OW 1217   0.798   0.757   1.305 -0.8012  0.0897  0.1140
  325SOL    HW1 1218   0.732   0.689   1.315 -0.5967  0.1514  2.2583
  325SOL    HW2 1219   0.755   0.824   1.251 -1.8083 -0.7121 -0.1009
  326SOL     OW 1220   3.678   0.623   1.585 -0.2726  0.4255  0.1862
  326SOL    HW1 1221   3.662   0.707   1.629 -3.3665  0.4546 -0.7041
  326SOL    HW2 1222   3.693   0.646   1.494  0.6497  0.0714  0.2387
  327SOL     OW 1223   3.186   1.764   0.765  0.3218 -0.0557  0.6575
  327SOL    HW1 1224   3.242   1.755   0.842  0.7188 -2.0800  0.1988
  327SOL    HW2 1225   3.099   1.781   0.800 -0.2415 -4.3346  1.8860
  328SOL     OW 1226   3.564   1.880   1.777 -0.0706 -0.0676 -0.3071
  328SOL    HW1 1227   3.472   1.867   1.800 -0.2494  2.0481  0.3654
  328SOL    HW2 1228   3.562   1.907   1.685 -0.1896  0.6376 -0.1003
  329SOL     OW 1229   1.715   2.397   0.759 -0.0565 -0.1279  0.2319
  329SOL    HW1 1230   1.799   2.389   0.805  0.9592  0.1791 -1.4834
  329SOL    HW2 1231   1.726   2.344   0.680 -1.4708 -0.0188 -0.0612
  330SOL     OW 1232   0.637   1.065   0.378  0.0174 -0.4491  0.2662
  330SOL    HW1 1233   0.622   0.970   0.376 -0.6117 -0.3371 -0.7617
  330SOL    HW2 1234   0.571   1.098   0.439  0.0131 -0.6240  0.3584
  331SOL     OW 1235   2.590   0.727   1.580  0.7305 -0.0101  0.1336
  331SOL    HW1 1236   2.526   0.670   1.621 -0.6068 -0.0045 -1.7909
  331SOL    HW2 1237   2.544   0.763   1.504  2.1548  2.1448  0.2193
  332SOL     OW 1238   2.129   1.917   1.023  0.2531 -0.1625 -0.3251
  332SOL    HW1 1239   2.217   1.941   0.993  0.5166 -0.7395 -0.0239
  332SOL    HW2 1240   2.071   1.955   0.957  0.6016  1.8519  0.4637
  333SOL     OW 1241   1.522   3.760   1.222  0.0300  0.8939 -0.4364
  333SOL    HW1 1242   1.491   3.842   1.261  0.9566  0.5636  1.1236
  333SOL    HW2 1243   1.443   3.714   1.195 -0.5875  1.6989 -0.0267
  334SOL     OW 1244   0.421   2.568   1.919  0.4943 -0.6228  0.4916
  334SOL    HW1 1245   0.483   2.594   1.987  0.6700 -0.7116  0.3649
  334SOL    HW2 1246   0.451   2.483   1.889  0.1113 -0.8248  0.6695
  335SOL     OW 1247   2.611   1.065   0.719  0.6218 -0.1634 -0.3654
  335SOL    HW1 1248   2.689   1.066   0.663  0.5222 -1.2338 -0.5304
  335SOL    HW2 1249   2.585   0.973   0.723  0.0824  0.0205  0.6932
  336SOL     OW 1250   0.887   0.149   1.540  0.1978 -0.2733 -0.0841
  336SOL    HW1 1251   0.881   0.238   1.506  1.3128  0.3078  1.1748
  336SOL    HW2 1252   0.981   0.130   1.542  0.1833 -0.3590  2.3954
  337SOL     OW 1253   0.741   0.567   0.330  0.1031  0.1851  0.3189
  337SOL    HW1 1254   0.775   0.488   0.286  0.2891  1.1532 -1.3524
  337SOL    HW2 1255   0.805   0.585   0.399  1.0146 -0.1362 -0.4225
  338SOL     OW 1256   3.466   1.869   2.340  0.2080  0.4790 -0.0246
  338SOL    HW1 1257   3.410   1.802   2.381 -0.7660  1.6995  0.6965
  338SOL    HW2 1258   3.547   1.866   2.390 -0.2619  0.6226  0.7594
  339SOL     OW 1259   3.591   1.793   0.088 -0.1805 -0.5515  0.0159
  339SOL    HW1 1260   3.581   1.771   0.180  0.4722 -0.3915  0.1331
  339SOL    HW2 1261   3.620   1.885   0.088  3.5906 -1.5686 -0.1307
  340SOL     OW 1262   3.849   0.268   0.475 -0.5968  0.1083  0.2094
  340SOL    HW1 1263   3.833   0.356   0.439  0.4481 -0.6857 -2.4593
  340SOL    HW2 1264   3.943   0.266   0.492 -0.8429 -0.0575  1.6386
  341SOL     OW 1265   1.743   4.098   2.985 -0.4763 -0.5360  0.1603
  341SOL    HW1 1266   1.681   4.142   2.927 -1.3221 -0.2625  1.2396
  341SOL    HW2 1267   1.810   4.163   3.003  0.0567 -0.7785 -0.8784
  342SOL     OW 1268   4.119   3.473   0.612  0.0700 -0.2951 -0.6400
  342SOL    HW1 1269   4.148   3.447   0.700  0.3242  0.5175 -0.4783
  342SOL    HW2 1270   4.108   3.390   0.565 -2.7359 -0.9614  0.9475
  343SOL     OW 1271   1.175   4.148   2.581 -0.1950 -0.1837 -0.6245
  343SOL    HW1 1272   1.221   4.065   2.590 -0.4954 -0.4421 -1.3412
  343SOL    HW2 1273   1.243   4.215   2.583  0.0682 -0.4616 -0.2703
  344SOL     OW 1274   1.762   2.333   1.990 -0.3797 -0.2864  0.2529
  344SOL    HW1 1275   1.801   2.371   1.911 -0.7518 -2.3414 -0.9703
  344SOL    HW2 1276   1.832   2.279   2.027 -0.7330 -0.6544  0.3852
  345SOL     OW 1277   1.122   1.728   0.996 -0.1090  0.7109 -0.6357
  345SOL    HW1 1278   1.190   1.714   1.061 -0.2558 -0.7498 -0.7672
  345SOL    HW2 1279   1.152   1.804   0.945  1.2686  0.2740 -0.5088
  346SOL     OW 1280   0.137   3.537   2.162 -0.3239  0.2136 -0.2143
  346SOL    HW1 1281   0.222   3.501   2.185 -0.7298 -1.5380 -1.2207
  346SOL    HW2 1282   0.079   3.509   2.232 -0.4153 -0.1582 -0.4340
  347SOL     OW 1283   0.698   2.015   2.509 -0.4286 -0.4182  0.4488
  347SOL    HW1 1284   0.642   2.062   2.447 -0.3537 -1.9377 -0.8382
  347SOL    HW2 1285   0.784   2.055   2.498 -0.6275 -0.0252  0.2968
  348SOL     OW 1286   2.156   2.470   0.268  0.1447  0.2031  0.6680
  348SOL    HW1 1287   2.216   2.509   0.204 -0.2077 -1.3163 -0.6595
  348SOL    HW2 1288   2.098   2.542   0.293  1.1447  1.1620  0.3292
  349SOL     OW 1289   2.588   1.641   2.405  0.6873 -0.4118 -0.3345
  349SOL    HW1 1290   2.585   1.733   2.379  2.3354  0.5827  2.5373
  349SOL    HW2 1291   2.676   1.612   2.380  0.0630 -1.3659 -1.5318
  350SOL     OW 1292   1.686   3.168   0.438  0.5567 -0.2531 -0.0150
  350SOL    HW1 1293   1.620   3.115   0.483  2.0072 -3.9227 -1.8509
  350SOL    HW2 1294   1.716   3.231   0.504 -1.4715 -1.5087  2.2468
  351SOL     OW 1295   2.364   3.297   0.123 -1.0066  0.3667 -0.2284
  351SOL    HW1 1296   2.297   3.233   0.147 -1.8641  0.8598 -1.2099
  351SOL    HW2 1297   2.445   3.262   0.160 -0.7148 -3.1489 -3.4930
  352SOL     OW 1298   2.079   0.086   2.299  1.1562 -0.2807  0.0485
  352SOL    HW1 1299   2.067   0.048   2.212  0.0126 -1.5580  0.7277
  352SOL    HW2 1300   2.037   0.172   2.293  1.5730 -0.1268 -0.8075
  353SOL     OW 1301   0.495   0.289   2.158  0.3989  0.2471 -0.8446
  353SOL    HW1 1302   0.579   0.303   2.115  0.8284  1.7655  0.3927
  353SOL    HW2 1303   0.430   0.317   2.093  1.0505  3.0602 -0.4362
  354SOL     OW 1304   3.210   3.803   2.616  0.3127 -0.3682  0.3372
  354SOL    HW1 1305   3.169   3.718   2.635  1.0024 -0.7326  0.2309
  354SOL    HW2 1306   3.137   3.859   2.589 -0.3612 -0.4799  1.8393
  355SOL     OW 1307   1.920   3.713   1.822  0.0186 -0.2432  0.3458
  355SOL    HW1 1308   1.852   3.658   1.784 -0.0281 -1.1391  1.6992
  355SOL    HW2 1309   1.876   3.797   1.836  0.1620  0.3068 -1.9633
  356SOL     OW 1310   2.142   4.014   2.029 -0.0616 -0.4427  0.0080
  356SOL    HW1 1311   2.167   3.928   1.995  1.8479 -0.2611  0.8096
  356SOL    HW2 1312   2.109   3.995   2.117  0.6934 -0.3548  0.3226
  357SOL     OW 1313   2.218   0.395   0.030 -0.5917 -0.5030  0.1536
  357SOL    HW1 1314   2.142   0.389   0.088 -0.1746 -0.2790  0.7315
  357SOL    HW2 1315   2.243   0.304   0.014 -0.6659 -0.5637  0.3814
  358SOL     OW 1316   1.519   2.727   1.866 -0.1742  0.2034 -0.3937
  358SOL    HW1 1317   1.614   2.735   1.863 -0.1480  0.0384 -0.0136
  358SOL    HW2 1318   1.503   2.647   1.914 -0.5222  0.8164  0.5384
  359SOL     OW 1319   1.451   0.487   2.278 -0.9107 -0.2980 -0.4166
  359SOL    HW1 1320   1.503   0.408   2.263  2.3001  1.3454  1.0023
  359SOL    HW2 1321   1.411   0.473   2.364 -0.4778 -0.4684 -0.2388
  360SOL     OW 1322   1.837   2.100   2.701 -0.3422 -0.0330 -0.4373
  360SOL    HW1 1323   1.821   2.166   2.634  1.1212  0.8477  0.0310
  360SOL    HW2 1324   1.824   2.147   2.784  0.9767 -0.2310 -0.0965
  361SOL     OW 1325   0.981   1.392   0.247 -0.3299 -0.8373  0.0846
  361SOL    HW1 1326   0.973   1.308   0.202 -1.7960 -1.3418  1.1840
  361SOL    HW2 1327   0.946   1.455   0.185  0.8996 -0.9938 -0.8028
  362SOL     OW 1328   2.887   0.219   0.370  0.1667  0.0668  0.2777
  362SOL    HW1 1329   2.824   0.249   0.436 -1.5669  0.4662 -1.4685
  362SOL    HW2 1330   2.906   0.298   0.318  0.3403 -0.5459 -0.6068
  363SOL     OW 1331   1.283   0.117   0.173  0.2553  0.4374 -0.6378
  363SOL    HW1 1332   1.207   0.087   0.222 -0.1092  1.1672 -0.7590
  363SOL    HW2 1333   1.287   0.211   0.188  1.0516  0.4301 -0.7472
  364SOL     OW 1334   3.976   0.012   1.304 -0.2442  0.1587  0.2391
  364SOL    HW1 1335   4.013   0.038   1.388 -1.1342 -0.0929  0.7215
  364SOL    HW2 1336   4.052  -0.002   1.248  0.3562  0.5060  0.9466
  365SOL     OW 1337   2.531   0.843   0.492  0.1802  0.1367  0.7779
  365SOL    HW1 1338   2.611   0.836   0.439 -0.5347 -0.4668 -0.2784
  365SOL    HW2 1339   2.531   0.764   0.545 -0.0012 -0.1622  0.3415
  366SOL     OW 1340   1.033   2.900   0.992 -0.4135 -0.3955  0.5971
  366SOL    HW1 1341   1.110   2.855   1.028 -0.8092 -0.5507  1.2694
  366SOL    HW2 1342   0.970   2.830   0.974 -1.3941 -0.0904  2.5293
  367SOL     OW 1343   0.952   3.491   0.315  0.0183  0.4721  0.0798
  367SOL    HW1 1344   0.931   3.578   0.349  0.7576  0.5916  0.2475
  367SOL    HW2 1345   0.965   3.505   0.221  0.4758  0.6060  0.1628
  368SOL     OW 1346   2.178   0.134   3.068 -0.3126 -0.3498 -0.1950
  368SOL    HW1 1347   2.155   0.222   3.038 -1.0226 -0.5225 -0.1880
  368SOL    HW2 1348   2.223   0.094   2.994  0.5420  0.2142  0.0077
  369SOL     OW 1349   3.162   3.761   0.936 -0.7719  0.0463  0.1013
  369SOL    HW1 1350   3.171   3.856   0.923 -2.6623  0.3857  0.9059
  369SOL    HW2 1351   3.250   3.731   0.958 -0.4491  1.9418  1.6561
  370SOL     OW 1352   0.781   4.099   0.143 -0.1505  0.7065  0.1624
  370SOL    HW1 1353   0.755   4.126   0.054 -0.7893  1.1219  0.4639
  370SOL    HW2 1354   0.714   4.035   0.168  0.0017  0.6285  0.3630
  371SOL     OW 1355   0.890   0.997   2.658  0.0219  0.5386 -0.0637
  371SOL    HW1 1356   0.843   1.069   2.616 -0.2001  1.3620  1.5205
  371SOL    HW2 1357   0.971   1.036   2.691 -0.7684  0.4749  2.1168
  372SOL     OW 1358   4.279   1.864   0.139 -0.3000 -0.1944 -0.4933
  372SOL    HW1 1359   4.195   1.889   0.177 -0.1761 -0.3640 -0.0895
  372SOL    HW2 1360   4.321   1.946   0.115  1.4524  0.3949  3.6555
  373SOL     OW 1361   1.994   1.427   1.872  0.2517 -0.1742  0.4241
  373SOL    HW1 1362   2.031   1.388   1.951 -2.1826 -2.5298  0.5761
  373SOL    HW2 1363   1.947   1.504   1.903  1.0463  0.1274  0.9197
  374SOL     OW 1364   1.537   4.197   0.160 -0.2368 -0.2670 -0.1319
  374SOL    HW1 1365   1.578   4.244   0.088 -1.5634  2.1028  0.5214
  374SOL    HW2 1366   1.609   4.180   0.221  0.4777 -0.0681 -0.8967
  375SOL     OW 1367   2.711   3.731   0.235 -0.9395  0.2860  0.0241
  375SOL    HW1 1368   2.735   3.809   0.285 -2.2304  1.2613 -0.8029
  375SOL    HW2 1369   2.794   3.686   0.219 -0.2206  1.2515  0.8827
  376SOL     OW 1370   4.069   2.365   1.446 -0.2270 -1.0121  0.0221
  376SOL    HW1 1371   4.061   2.425   1.520 -1.7526 -0.9439 -0.1676
  376SOL    HW2 1372   4.121   2.413   1.382  0.2958 -0.6987  0.6671
  377SOL     OW 1373   1.355   0.118   1.169 -0.3687 -0.1912  0.4275
  377SOL    HW1 1374   1.381   0.046   1.110 -1.0628 -0.9746  1.0478
  377SOL    HW2 1375   1.408   0.105   1.247 -0.1387  0.2775  0.3524
  378SOL     OW 1376   3.180   3.574   1.232  0.2965  0.0418  0.2541
  378SOL    HW1 1377   3.103   3.553   1.285  0.5744 -0.2714  0.5419
  378SOL    HW2 1378   3.147   3.576   1.142  0.0175 -0.4492  0.3381
  379SOL     OW 1379   1.716   3.170   0.743 -0.2003 -0.6609 -0.6818
  379SOL    HW1 1380   1.635   3.168   0.693 -2.2315 -0.0736  2.3461
  379SOL    HW2 1381   1.710   3.094   0.802  0.1708  0.7992  1.3339
  380SOL     OW 1382   1.274   1.721   0.242 -1.3406  0.0978  1.0097
  380SOL    HW1 1383   1.248   1.638   0.282  2.0274 -0.4285  2.4484
  380SOL    HW2 1384   1.266   1.706   0.148 -2.2357 -1.3142  1.2830
  381SOL     OW 1385   1.666   3.150   1.902 -0.5079 -0.2307 -0.4927
  381SOL    HW1 1386   1.685   3.149   1.996 -1.8304 -0.9920 -0.2180
  381SOL    HW2 1387   1.584   3.199   1.895 -0.1785  0.2140 -1.3056
  382SOL     OW 1388   2.456   2.271   0.419 -0.3237 -0.0070  0.5426
  382SOL    HW1 1389   2.365   2.252   0.395 -0.7366 -0.9911  2.6837
  382SOL    HW2 1390   2.494   2.186   0.438  0.7672  0.4874  0.6613
  383SOL     OW 1391   1.891   3.204   1.250  0.5261 -0.2907  0.1161
  383SOL    HW1 1392   1.944   3.172   1.177  0.4119  0.5237 -0.3399
  383SOL    HW2 1393   1.843   3.127   1.280  0.2661 -0.5548 -0.9323
  384SOL     OW 1394   4.069   0.190   1.507 -0.3085  0.3720 -0.5891
  384SOL    HW1 1395   4.158   0.164   1.532 -0.2465  0.0933 -1.0891
  384SOL    HW2 1396   4.012   0.144   1.569 -0.1013  0.6447 -0.1921
  385SOL     OW 1397   2.900   4.131   2.963 -0.2287  0.2707  0.0462
  385SOL    HW1 1398   2.907   4.226   2.970  1.1680  0.3449 -1.7752
  385SOL    HW2 1399   2.856   4.116   2.879 -0.3389 -0.7084  0.2626
  386SOL     OW 1400   4.263   2.997   2.559 -0.0410  0.5654  0.1436
  386SOL    HW1 1401   4.277   2.904   2.578  0.4790  0.6650  0.2632
  386SOL    HW2 1402   4.209   2.997   2.480 -1.8328  0.1512  1.3030
  387SOL     OW 1403   3.937   0.705   3.069 -0.4184  0.2130  0.0411
  387SOL    HW1 1404   3.869   0.761   3.106  0.6993  1.2218  0.6090
  387SOL    HW2 1405   3.909   0.689   2.979  0.2611  3.4486 -0.8439
  388SOL     OW 1406   3.956   1.316   2.175 -0.1122 -0.2919 -0.4090
  388SOL    HW1 1407   4.041   1.333   2.135  0.3459  2.2525  1.3868
  388SOL    HW2 1408   3.907   1.397   2.164 -1.1449 -0.6360  1.2309
  389SOL     OW 1409   4.171   1.587   0.248  0.5732 -0.5594 -0.2260
  389SOL    HW1 1410   4.095   1.546   0.290  0.6021 -0.6579 -0.2710
  389SOL    HW2 1411   4.141   1.675   0.225 -0.3028 -1.3702 -2.4127
  390SOL     OW 1412   4.121   2.257   0.524  0.4684  0.0211 -0.3114
  390SOL    HW1 1413   4.186   2.307   0.572 -0.5244  1.0998 -0.0310
  390SOL    HW2 1414   4.119   2.298   0.437  1.1129 -0.8891 -0.7763
  391SOL     OW 1415   2.718   0.586   0.543  0.7812 -0.9196 -0.1943
  391SOL    HW1 1416   2.735   0.491   0.547  1.2366 -0.8575 -0.5554
  391SOL    HW2 1417   2.792   0.625   0.591  0.0661 -0.7965  0.8272
  392SOL     OW 1418   2.211   2.047   0.123 -1.1977 -0.5446  0.2355
  392SOL    HW1 1419   2.256   1.977   0.172  1.0351  1.2520  0.9414
  392SOL    HW2 1420   2.238   2.033   0.033  2.6015  1.5607  0.8557
  393SOL     OW 1421   1.896   2.668   2.389  0.0216 -0.8787  0.0128
  393SOL    HW1 1422   1.951   2.712   2.453 -2.4818  0.8907  1.0857
  393SOL    HW2 1423   1.924   2.576   2.392  3.4891  0.0353 -0.2629
  394SOL     OW 1424   0.916   0.405   0.547 -0.5772 -0.3621 -0.1850
  394SOL    HW1 1425   0.943   0.323   0.505  0.2094  0.4232 -1.2778
  394SOL    HW2 1426   0.840   0.381   0.599 -0.9212 -1.6139 -1.2064
  395SOL     OW 1427   0.904   2.306   0.803 -0.1425 -0.5358  0.1359
  395SOL    HW1 1428   0.877   2.237   0.864  5.2369 -2.4867  0.8737
  395SOL    HW2 1429   0.916   2.260   0.720  1.5589 -0.1173  0.1159
  396SOL     OW 1430   4.189   3.878   2.527  0.0198 -0.0992 -0.3175
  396SOL    HW1 1431   4.276   3.895   2.562  0.5136 -0.5169 -1.3242
  396SOL    HW2 1432   4.130   3.921   2.589  0.9406  0.3329  0.2816
  397SOL     OW 1433   0.931   0.560   2.716 -0.4606  0.7111 -0.3534
  397SOL    HW1 1434   0.980   0.528   2.791 -0.0993 -0.5518 -1.0965
  397SOL    HW2 1435   0.871   0.489   2.693 -0.3644  0.9429 -1.4156
  398SOL     OW 1436   3.300   3.390   3.032 -0.2028 -0.0155 -0.0068
  398SOL    HW1 1437   3.311   3.427   3.119  0.7231 -0.7085  0.1864
  398SOL    HW2 1438   3.212   3.417   3.005 -0.2975  0.6400  0.9208
  399SOL     OW 1439   1.363   3.036   0.879  0.0439 -0.0886  0.5168
  399SOL    HW1 1440   1.351   3.092   0.956  1.6990  1.2454 -0.1318
  399SOL    HW2 1441   1.291   3.060   0.820  0.1108  0.5953  0.7028
  400SOL     OW 1442   2.675   4.350   1.387 -0.0050  0.2751  0.1840
  400SOL    HW1 1443   2.647   4.392   1.469 -1.6229  0.4787 -0.4277
  400SOL    HW2 1444   2.769   4.334   1.399 -0.2493  0.0430  2.1869
  401SOL     OW 1445   1.230   1.470   2.107 -0.4191 -0.5006 -0.1560
  401SOL    HW1 1446   1.236   1.438   2.197 -1.8388 -2.7902 -0.7979
  401SOL    HW2 1447   1.278   1.405   2.055 -4.0082 -2.2427 -1.6056
  402SOL     OW 1448   1.969   3.744   0.581  0.5558 -0.5094  0.6999
  402SOL    HW1 1449   2.042   3.693   0.546  0.2547 -1.2706  1.1593
  402SOL    HW2 1450   1.991   3.759   0.673  0.9832  0.8287  0.4003
  403SOL     OW 1451   3.618   1.705   0.745 -0.1367  0.4736 -0.1447
  403SOL    HW1 1452   3.699   1.725   0.696 -1.2415 -0.9658 -2.7648
  403SOL    HW2 1453   3.612   1.610   0.744 -2.4317  0.5585 -1.1208
  404SOL     OW 1454   0.604   4.379   0.287 -0.1520  0.4629 -0.4612
  404SOL    HW1 1455   0.642   4.431   0.358 -0.4634 -0.3982  0.3580
  404SOL    HW2 1456   0.525   4.341   0.325 -1.4076  1.5508 -1.8838
  405SOL     OW 1457   0.965   2.097   2.530 -0.5141  0.4933 -0.3207
  405SOL    HW1 1458   0.991   2.014   2.570  0.6475  1.0960  0.2159
  405SOL    HW2 1459   0.994   2.163   2.592  1.1745  1.4598 -2.0450
  406SOL     OW 1460   0.305   0.675   0.565  0.2110  0.5435  0.0791
  406SOL    HW1 1461   0.387   0.637   0.534 -0.6904 -1.1949 -0.3399
  406SOL    HW2 1462   0.254   0.690   0.485 -0.7482 -0.5972  0.4449
  407SOL     OW 1463   2.884   1.539   0.468  0.0370 -0.1661 -0.1722
  407SOL    HW1 1464   2.900   1.450   0.500 -0.5381  0.0275  0.6932
  407SOL    HW2 1465   2.875   1.530   0.373 -0.0535 -1.0356 -0.0858
  408SOL     OW 1466   0.145   0.691   0.335 -0.3118 -0.4904 -0.0145
  408SOL    HW1 1467   0.076   0.750   0.306  0.8259  0.6957 -0.3893
  408SOL    HW2 1468   0.158   0.632   0.261  2.9296  2.8229 -2.4628
  409SOL     OW 1469   0.156   1.471   1.863  1.0491  0.6963 -0.1093
  409SOL    HW1 1470   0.096   1.544   1.850 -1.1378 -1.1629 -1.1866
  409SOL    HW2 1471   0.101   1.399   1.895  2.6905 -1.0737 -1.0300
  410SOL     OW 1472   1.715   3.000   3.022 -0.1575 -0.2276 -0.2676
  410SOL    HW1 1473   1.627   2.978   2.991 -1.0948  3.0734 -0.2437
  410SOL    HW2 1474   1.701   3.038   3.109  1.3016  0.3719 -0.2685
  411SOL     OW 1475   2.836   4.192   0.474 -0.0592 -0.0258  0.0856
  411SOL    HW1 1476   2.830   4.156   0.386 -1.7644 -0.1261  0.2100
  411SOL    HW2 1477   2.785   4.131   0.529  0.7096  0.2041  1.0862
  412SOL     OW 1478   2.762   3.385   2.272  0.0734  0.3641  0.3438
  412SOL    HW1 1479   2.795   3.308   2.317  0.0964  0.9823  1.4228
  412SOL    HW2 1480   2.677   3.358   2.237  0.6836 -0.5433 -0.4748
  413SOL     OW 1481   3.722   3.238   3.061 -0.1694 -0.2063 -0.0890
  413SOL    HW1 1482   3.810   3.257   3.030 -1.3084  2.5597 -2.0870
  413SOL    HW2 1483   3.728   3.244   3.156  1.6319  0.8279 -0.2252
  414SOL     OW 1484   2.025   2.217   2.070 -0.2378  0.4345  0.4663
  414SOL    HW1 1485   1.989   2.150   2.012 -2.1777  1.6354  0.1897
  414SOL    HW2 1486   2.023   2.177   2.158 -1.7113  0.2332  0.3609
  415SOL     OW 1487   1.381   0.963   3.019 -0.1251  0.1049 -0.6181
  415SOL    HW1 1488   1.376   0.878   2.975 -0.8794 -0.4736  0.5468
  415SOL    HW2 1489   1.397   1.025   2.948 -0.0961 -0.9367 -1.5590
  416SOL     OW 1490   2.175   3.512   0.136 -0.5332 -0.1683 -0.0219
  416SOL    HW1 1491   2.231   3.445   0.096 -1.2647  0.0041 -1.4147
  416SOL    HW2 1492   2.120   3.465   0.198  0.4300 -0.4974  0.6101
  417SOL     OW 1493   2.245   3.647   3.096 -0.2470  0.0514  0.3397
  417SOL    HW1 1494   2.300   3.651   3.018 -0.4200 -2.8468 -0.0526
  417SOL    HW2 1495   2.195   3.566   3.086 -1.1044  0.1518  2.9375
  418SOL     OW 1496   2.518   4.325   1.143  0.2130 -0.2804  0.1876
  418SOL    HW1 1497   2.590   4.301   1.201  1.4291 -1.6822 -1.7971
  418SOL    HW2 1498   2.533   4.274   1.064 -2.4308  0.1561 -0.6783
  419SOL     OW 1499   3.272   1.473   1.495  0.2157  0.2107  0.7457
  419SOL    HW1 1500   3.327   1.427   1.431  0.9314  1.1553  0.6623
  419SOL    HW2 1501   3.292   1.430   1.578 -1.2595 -1.5128  0.2720
  420SOL     OW 1502   1.331   3.462   1.234  0.5219 -0.1414  0.2876
  420SOL    HW1 1503   1.255   3.519   1.225 -0.8277 -1.9409 -0.1899
  420SOL    HW2 1504   1.369   3.486   1.318 -1.6051 -0.3799  1.3688
  421SOL     OW 1505   3.386   3.553   2.681 -0.3585 -0.5302  0.0399
  421SOL    HW1 1506   3.430   3.628   2.640  0.7474 -0.0636  1.9851
  421SOL    HW2 1507   3.293   3.566   2.663  0.0028  0.1406 -1.4700
  422SOL     OW 1508   3.653   2.888   0.333 -0.0053 -0.0469  0.1805
  422SOL    HW1 1509   3.596   2.948   0.381  0.7752 -0.2439  1.4130
  422SOL    HW2 1510   3.610   2.803   0.341 -0.1587  0.0173  0.0467
  423SOL     OW 1511   0.747   1.738   3.122  0.4035 -0.2470 -0.8330
  423SOL    HW1 1512   0.721   1.646   3.117  1.7752 -0.6120 -2.0507
  423SOL    HW2 1513   0.687   1.783   3.062 -1.7146  0.0921  1.3691
  424SOL     OW 1514   2.119   1.401   0.707  0.4114 -0.1680 -0.1686
  424SOL    HW1 1515   2.082   1.340   0.771 -2.0969  1.8131  0.4201
  424SOL    HW2 1516   2.214   1.386   0.713  0.0201 -2.8687  1.0312
  425SOL     OW 1517   0.022   3.840   2.120 -0.4321  0.1523 -0.1607
  425SOL    HW1 1518   0.078   3.767   2.146 -0.5020  0.1752  0.0546
  425SOL    HW2 1519   0.024   3.899   2.195 -0.6972  0.1818 -0.1779
  426SOL     OW 1520   0.664   3.376   2.572 -0.0135 -0.1562 -0.6039
  426SOL    HW1 1521   0.645   3.365   2.665 -0.6501 -1.3660 -0.8563
  426SOL    HW2 1522   0.695   3.466   2.564  1.3374 -0.4227  0.9794
  427SOL     OW 1523   0.677   2.552   1.379  0.5140 -0.0561 -0.0190
  427SOL    HW1 1524   0.660   2.568   1.287  0.6608  0.1253 -0.0158
  427SOL    HW2 1525   0.693   2.458   1.386  1.6767  0.0972 -0.3669
  428SOL     OW 1526   1.944   3.050   0.649 -0.3698 -0.0247  0.0836
  428SOL    HW1 1527   1.942   2.989   0.722 -0.9431 -0.3925 -0.2363
  428SOL    HW2 1528   1.864   3.102   0.658  0.8370  1.7502  1.2355
  429SOL     OW 1529   1.851   2.245   0.212  0.4438 -0.5973 -0.8711
  429SOL    HW1 1530   1.789   2.296   0.160 -1.3997 -1.2017  0.6555
  429SOL    HW2 1531   1.882   2.306   0.279 -0.8193 -1.0886  0.1946
  430SOL     OW 1532   2.689   0.514   0.266 -0.3092 -0.2488  0.0477
  430SOL    HW1 1533   2.711   0.573   0.339 -0.1286 -0.5286  0.2212
  430SOL    HW2 1534   2.663   0.573   0.195 -0.3797  0.0317  0.3030
  431SOL     OW 1535   2.713   1.656   0.642  0.0253 -0.5065  0.1715
  431SOL    HW1 1536   2.781   1.616   0.588  0.5230 -0.1920  0.5615
  431SOL    HW2 1537   2.690   1.589   0.706 -1.2662 -1.2446 -1.0187
  432SOL     OW 1538   1.982   3.339   2.521  0.4432 -0.7967  0.0608
  432SOL    HW1 1539   2.057   3.317   2.577  0.6897  1.5879  0.7516
  432SOL    HW2 1540   1.942   3.415   2.563 -0.8468 -0.4459 -1.6990
  433SOL     OW 1541   0.829   1.236   2.534  0.7899  0.0153  0.0350
  433SOL    HW1 1542   0.895   1.251   2.467 -0.4480  0.4729 -1.1331
  433SOL    HW2 1543   0.796   1.323   2.556  0.9261 -0.1588  0.9938
  434SOL     OW 1544   1.794   2.751   1.825 -0.1391  0.1675  0.1782
  434SOL    HW1 1545   1.762   2.823   1.771  0.4141  1.0102  0.9283
  434SOL    HW2 1546   1.844   2.794   1.894 -0.1303 -0.9254  0.8782
  435SOL     OW 1547   2.871   3.226   0.323  0.7460 -0.4055 -0.1392
  435SOL    HW1 1548   2.877   3.156   0.258  0.0973  1.5686 -2.4839
  435SOL    HW2 1549   2.961   3.256   0.334  1.1229 -1.9520  1.3779
  436SOL     OW 1550   4.335   3.489   1.709 -0.4252 -0.1436 -0.8215
  436SOL    HW1 1551   4.397   3.545   1.756  0.3727  0.4945 -2.5800
  436SOL    HW2 1552   4.304   3.428   1.776  0.8440  0.5705  0.4893
  437SOL     OW 1553   3.875   3.027   0.251  0.2489  0.4519  0.1416
  437SOL    HW1 1554   3.796   2.978   0.269 -0.0471  0.6715 -0.5236
  437SOL    HW2 1555   3.855   3.117   0.277  0.1050  0.6038 -0.4687
  438SOL     OW 1556   3.118   2.851   2.439 -0.2006 -0.3655  0.2206
  438SOL    HW1 1557   3.065   2.829   2.361  0.5229 -1.1608 -0.0612
  438SOL    HW2 1558   3.208   2.833   2.413  0.2944  1.5154  0.5182
  439SOL     OW 1559   1.571   2.073   0.258  0.4303  0.0728  0.0689
  439SOL    HW1 1560   1.553   1.987   0.297 -3.4048  1.7782  2.6659
  439SOL    HW2 1561   1.645   2.107   0.307 -0.9852  0.0198  2.3664
  440SOL     OW 1562   3.462   1.161   0.868 -0.1107  0.3565  0.1140
  440SOL    HW1 1563   3.454   1.255   0.881  3.0853  0.6024  1.0391
  440SOL    HW2 1564   3.553   1.147   0.843 -0.1974 -2.5765  0.9766
  441SOL     OW 1565   2.429   0.316   1.918  0.2623  0.5940  0.3901
  441SOL    HW1 1566   2.462   0.311   1.829  0.9545 -0.4047  0.6843
  441SOL    HW2 1567   2.493   0.268   1.970 -1.2781 -0.7966  1.0981
  442SOL     OW 1568   3.088   1.297   2.374 -0.2889  0.5068 -0.3962
  442SOL    HW1 1569   3.169   1.334   2.339 -0.1400  0.3651 -0.2115
  442SOL    HW2 1570   3.108   1.204   2.386 -0.3331  0.5529  0.0607
  443SOL     OW 1571   3.105   2.484   0.708 -0.0865 -0.5926 -0.1783
  443SOL    HW1 1572   3.197   2.509   0.699  0.0482 -0.6465  0.9987
  443SOL    HW2 1573   3.107   2.389   0.719 -0.3808 -0.7552 -1.3938
  444SOL     OW 1574   0.107   2.991   2.658 -0.7034 -0.1471 -0.2473
  444SOL    HW1 1575   0.018   2.982   2.622 -0.9115  1.4031 -0.1773
  444SOL    HW2 1576   0.101   3.065   2.718  0.4917 -0.4649  0.2906
  445SOL     OW 1577   0.409   1.328   1.877  0.0515 -0.2005 -0.1754
  445SOL    HW1 1578   0.423   1.253   1.819 -1.0483  0.8233 -1.8492
  445SOL    HW2 1579   0.320   1.358   1.856 -1.4978 -1.3042  3.8702
  446SOL     OW 1580   3.384   1.054   2.488  0.3501 -0.7928 -0.0189
  446SOL    HW1 1581   3.413   1.047   2.397 -0.8077 -0.9647 -0.3912
  446SOL    HW2 1582   3.422   1.135   2.520  0.0326 -0.2697 -0.9457
  447SOL     OW 1583   0.323   4.276   0.394 -0.5861 -0.5447  0.2008
  447SOL    HW1 1584   0.269   4.317   0.461  0.2057 -2.0009  1.8264
  447SOL    HW2 1585   0.280   4.192   0.377 -0.5481 -0.3683 -0.8424
  448SOL     OW 1586   0.239   1.085   0.540  0.3467  0.4483 -0.7293
  448SOL    HW1 1587   0.266   1.147   0.472 -0.0603  0.6436 -0.7147
  448SOL    HW2 1588   0.191   1.017   0.493  0.8069  0.1281 -0.7476
  449SOL     OW 1589   4.115   2.084   2.319 -0.8805 -0.5009 -0.1807
  449SOL    HW1 1590   4.066   2.025   2.262  1.6572 -1.9362 -1.0136
  449SOL    HW2 1591   4.131   2.033   2.399  0.0708 -0.4152 -0.3106
  450SOL     OW 1592   1.519   3.934   0.015 -0.2693  0.1267 -0.4233
  450SOL    HW1 1593   1.506   4.024   0.044 -2.1026  0.1323 -1.1638
  450SOL    HW2 1594   1.432   3.902  -0.006  0.2509 -2.0796  0.4915
  451SOL     OW 1595   0.373   1.274   2.440 -0.4556  0.0614 -0.4430
  451SOL    HW1 1596   0.422   1.291   2.521 -1.5483 -0.0093  0.2518
  451SOL    HW2 1597   0.435   1.226   2.385  1.2621  2.4436 -0.7700
  452SOL     OW 1598   0.262   2.929   1.225 -0.1929 -0.1009  0.1615
  452SOL    HW1 1599   0.297   2.852   1.269  0.7248 -0.4461 -1.1259
  452SOL    HW2 1600   0.295   3.003   1.275 -0.2798 -0.5088  0.8326
  453SOL     OW 1601   1.468   1.630   0.673 -0.4984 -0.4389  0.5003
  453SOL    HW1 1602   1.421   1.572   0.613 -0.2696  1.2643 -1.4383
  453SOL    HW2 1603   1.559   1.626   0.643 -0.5898  1.3715 -0.0905
  454SOL     OW 1604   2.570   2.186   1.193 -0.5244 -0.0022  0.1971
  454SOL    HW1 1605   2.564   2.205   1.100  0.9141  1.1920  0.3220
  454SOL    HW2 1606   2.561   2.271   1.236 -2.2972 -0.6619  1.2396
  455SOL     OW 1607   2.187   2.985   0.184 -0.0624  0.2224  1.1160
  455SOL    HW1 1608   2.142   2.940   0.113  1.8207  0.2182 -0.1476
  455SOL    HW2 1609   2.276   2.950   0.182  1.5406  3.9380  0.0349
  456SOL     OW 1610   0.901   3.374   1.431  0.8533  0.3886 -0.2947
  456SOL    HW1 1611   0.845   3.328   1.369  0.5825  0.2857  0.0218
  456SOL    HW2 1612   0.955   3.305   1.470  1.3766  0.5179 -0.7726
  457SOL     OW 1613   2.659   0.279   2.161  0.0874 -0.0728  0.3872
  457SOL    HW1 1614   2.602   0.277   2.238 -0.6071  0.6068 -0.0900
  457SOL    HW2 1615   2.644   0.196   2.117 -0.6501  0.1516  0.2003
  458SOL     OW 1616   3.245   1.932   1.898  0.0383 -0.4633  0.5557
  458SOL    HW1 1617   3.165   1.937   1.950  0.3539  1.1205  0.9168
  458SOL    HW2 1618   3.316   1.949   1.960  0.3252  3.4677 -0.5980
  459SOL     OW 1619   0.033   0.523   1.031 -0.1802  0.2233 -0.7802
  459SOL    HW1 1620   0.098   0.566   0.974 -1.3353  0.0832 -2.2868
  459SOL    HW2 1621  -0.051   0.561   1.003 -0.9279 -0.9323 -0.1556
  460SOL     OW 1622   2.893   2.588   0.212 -0.1895 -0.0261 -0.3341
  460SOL    HW1 1623   2.952   2.523   0.176 -1.0310 -1.1771  0.3027
  460SOL    HW2 1624   2.894   2.572   0.307  0.1774  1.3938 -0.0762
  461SOL     OW 1625   0.641   3.745   1.157  0.0641 -0.3496  0.0440
  461SOL    HW1 1626   0.615   3.780   1.072  0.2703  3.0261  1.2150
  461SOL    HW2 1627   0.706   3.678   1.136  1.4532  1.5645 -2.4814
  462SOL     OW 1628   0.719   3.802   1.998 -0.0160 -0.4191  0.4351
  462SOL    HW1 1629   0.644   3.811   1.939  1.2750  2.5700 -0.9769
  462SOL    HW2 1630   0.682   3.812   2.086 -1.2690  1.6389 -0.2590
  463SOL     OW 1631   0.577   1.926   0.683  0.3700 -0.5234  0.1751
  463SOL    HW1 1632   0.616   1.961   0.603  0.2060 -0.6198  0.0526
  463SOL    HW2 1633   0.651   1.887   0.730  0.4151 -0.7559 -0.0829
  464SOL     OW 1634   1.615   0.158   3.064 -0.3141  0.2522  0.1533
  464SOL    HW1 1635   1.679   0.126   3.128  1.7499  0.0473 -1.8641
  464SOL    HW2 1636   1.654   0.239   3.031 -2.5719  1.7222  0.9058
  465SOL     OW 1637   2.054   3.970   0.316  0.7707  0.2195 -0.5803
  465SOL    HW1 1638   2.001   4.000   0.390  0.4477  0.6935 -0.9953
  465SOL    HW2 1639   2.092   3.887   0.346 -1.5351 -1.0385 -0.8412
  466SOL     OW 1640   1.702   1.218   0.621  0.1057 -0.0751 -0.1372
  466SOL    HW1 1641   1.757   1.143   0.598 -0.9564 -0.0113 -3.3196
  466SOL    HW2 1642   1.635   1.182   0.679 -0.1842 -1.5580 -1.3360
  467SOL     OW 1643   0.352   2.008   1.279  0.3431 -0.0162  0.1984
  467SOL    HW1 1644   0.263   1.992   1.248  0.7158  0.8361 -1.4697
  467SOL    HW2 1645   0.385   1.922   1.303  0.1330 -0.8529 -2.2521
  468SOL     OW 1646   1.853   2.099   1.169  0.1686 -0.1766  0.5082
  468SOL    HW1 1647   1.799   2.037   1.218  1.1223 -0.3968  1.3117
  468SOL    HW2 1648   1.899   2.150   1.236 -0.2545  1.1121 -0.1420
  469SOL     OW 1649   1.330   0.985   0.961  0.2731  0.3843  0.0440
  469SOL    HW1 1650   1.323   0.942   1.046  0.7610 -0.7376 -0.4553
  469SOL    HW2 1651   1.250   1.037   0.954 -0.3313 -0.4246  0.7084
  470SOL     OW 1652   4.049   1.430   2.448  0.0347  0.2707  0.4068
  470SOL    HW1 1653   3.993   1.352   2.437  2.3618 -1.4095 -0.4889
  470SOL    HW2 1654   4.074   1.429   2.540  0.3933 -0.3490  0.3137
  471SOL     OW 1655   0.144   0.751   2.732 -0.6432  0.9594  0.1402
  471SOL    HW1 1656   0.128   0.841   2.704 -1.1763  1.0796  0.8110
  471SOL    HW2 1657   0.063   0.724   2.775 -0.7151 -0.0604 -0.5980
  472SOL     OW 1658   4.174   0.742   2.151 -0.0395 -0.2728  0.2496
  472SOL    HW1 1659   4.162   0.832   2.120 -1.5609 -0.4176  0.3305
  472SOL    HW2 1660   4.173   0.750   2.247  0.2711 -0.3183  0.2555
  473SOL     OW 1661   2.557   3.452   2.948 -0.1125 -0.3017  0.4034
  473SOL    HW1 1662   2.585   3.369   2.909  2.0290  0.6078 -0.1167
  473SOL    HW2 1663   2.602   3.519   2.897 -1.6928  1.2060  0.8979
  474SOL     OW 1664   4.346   1.390   0.346 -0.2327  0.1769 -0.3560
  474SOL    HW1 1665   4.396   1.349   0.275  0.1836  1.7430 -1.0163
  474SOL    HW2 1666   4.300   1.462   0.305 -0.6396  0.6191  0.8209
  475SOL     OW 1667   1.315   2.486   0.382 -0.1123 -0.0248  0.1682
  475SOL    HW1 1668   1.235   2.538   0.386  0.5250  0.9023  1.4947
  475SOL    HW2 1669   1.382   2.548   0.353  0.2956 -0.5852 -0.1134
  476SOL     OW 1670   1.850   3.966   1.039 -0.3348 -0.1590  0.1679
  476SOL    HW1 1671   1.813   3.897   1.094 -1.6763 -0.2987 -0.8693
  476SOL    HW2 1672   1.906   4.017   1.099 -1.5023 -0.4863  1.5842
  477SOL     OW 1673   2.919   1.552   2.799  0.3752  0.2966  0.0292
  477SOL    HW1 1674   2.975   1.607   2.854  0.1086  2.6008 -1.8075
  477SOL    HW2 1675   2.976   1.526   2.726 -0.6458  2.1194 -1.5167
  478SOL     OW 1676   3.768   0.405   0.106  0.2156 -0.0258 -0.3840
  478SOL    HW1 1677   3.679   0.370   0.098  0.6590 -1.3019  0.0140
  478SOL    HW2 1678   3.767   0.451   0.190  0.3158 -1.2826  0.3288
  479SOL     OW 1679   3.028   1.754   2.408 -0.6261  0.5248 -0.6596
  479SOL    HW1 1680   3.084   1.685   2.446 -0.0965  0.1909 -1.9848
  479SOL    HW2 1681   3.075   1.835   2.425 -1.6963  0.7082  1.7263
  480SOL     OW 1682   1.030   2.837   2.485 -0.5665  0.1878 -0.3109
  480SOL    HW1 1683   1.002   2.755   2.445 -1.6682  0.3783  0.0509
  480SOL    HW2 1684   1.071   2.886   2.414  0.7612 -0.9577 -0.3730
  481SOL     OW 1685   4.384   3.208   2.216  0.3133  0.5183  0.0345
  481SOL    HW1 1686   4.421   3.130   2.257  1.1735  0.7673 -0.2359
  481SOL    HW2 1687   4.328   3.246   2.283 -0.3348 -0.4765  0.0758
  482SOL     OW 1688   1.840   3.497   0.060 -0.0414  0.4508  0.4457
  482SOL    HW1 1689   1.824   3.558   0.133  0.4692  0.4872  0.5281
  482SOL    HW2 1690   1.781   3.424   0.078  0.0920  0.4498  0.9108
  483SOL     OW 1691   2.822   1.613   2.267  0.3748  0.1604 -0.6924
  483SOL    HW1 1692   2.890   1.676   2.290  0.1551  0.3350 -0.5107
  483SOL    HW2 1693   2.800   1.634   2.177 -1.0276  1.6032 -0.0566
  484SOL     OW 1694   1.757   1.127   1.584  0.0157  0.2640  0.1374
  484SOL    HW1 1695   1.814   1.128   1.661 -1.2541 -1.3440  1.1612
  484SOL    HW2 1696   1.807   1.080   1.517 -0.7890 -3.1345  1.6974
  485SOL     OW 1697   4.334   3.319   0.253  0.3989  0.4351  0.1445
  485SOL    HW1 1698   4.282   3.242   0.233 -1.5717  1.6185  0.3968
  485SOL    HW2 1699   4.341   3.366   0.170  1.6156 -0.0009 -0.0156
  486SOL     OW 1700   1.932   4.290   0.136 -0.2524 -0.5346 -0.0435
  486SOL    HW1 1701   1.948   4.205   0.095  2.2334 -0.1090 -0.1149
  486SOL    HW2 1702   1.971   4.353   0.075  2.7453  0.1971  2.3398
  487SOL     OW 1703   2.508   2.423   2.371  0.1628  0.0919 -0.3185
  487SOL    HW1 1704   2.462   2.370   2.306  1.1094 -0.0858 -0.8577
  487SOL    HW2 1705   2.471   2.394   2.455 -2.1467  1.3912 -0.8118
  488SOL     OW 1706   2.100   1.656   2.403 -0.2415  0.0317 -0.4456
  488SOL    HW1 1707   2.103   1.721   2.333  0.6926  1.3379  0.7551
  488SOL    HW2 1708   2.187   1.615   2.402 -0.4646 -0.4454 -0.5089
  489SOL     OW 1709   4.030   2.190   0.077  0.1785 -0.2132  0.3190
  489SOL    HW1 1710   4.070   2.149   0.000  1.7154 -0.1006  1.0342
  489SOL    HW2 1711   4.000   2.116   0.130 -2.6526 -0.3123 -1.1814
  490SOL     OW 1712   2.208   1.527   2.668  0.9400  0.2978 -0.5952
  490SOL    HW1 1713   2.250   1.535   2.583 -1.7353 -1.1292 -2.1838
  490SOL    HW2 1714   2.143   1.597   2.670  0.4209 -0.1872 -0.0870
  491SOL     OW 1715   0.547   1.650   1.549 -0.1558  0.1268  0.2201
  491SOL    HW1 1716   0.587   1.565   1.534  0.4628  0.1729  1.5003
  491SOL    HW2 1717   0.483   1.635   1.618 -2.4607  0.0490 -1.8266
  492SOL     OW 1718   3.333   0.386   0.138 -0.2654  0.3822 -0.3985
  492SOL    HW1 1719   3.243   0.419   0.149 -0.3315  0.4241 -1.0122
  492SOL    HW2 1720   3.374   0.448   0.078  0.6092  1.1323  0.9282
  493SOL     OW 1721   1.526   2.188   2.259  0.0564 -0.1884  0.4817
  493SOL    HW1 1722   1.450   2.184   2.316 -0.3214  0.2273  0.0132
  493SOL    HW2 1723   1.523   2.275   2.219  0.5511 -0.3120  0.1584
  494SOL     OW 1724   2.962   0.126   2.454 -0.1227  0.2744  0.4757
  494SOL    HW1 1725   2.882   0.095   2.496 -0.0657  0.4273  0.7028
  494SOL    HW2 1726   3.015   0.160   2.527  0.5476 -0.6846  0.4469
  495SOL     OW 1727   2.770   0.862   0.346  0.3805  0.6380  0.2211
  495SOL    HW1 1728   2.834   0.811   0.297 -1.0042 -0.8439 -0.1404
  495SOL    HW2 1729   2.748   0.936   0.288 -0.8427 -0.7987 -1.2399
  496SOL     OW 1730   4.050   0.836   2.684  0.4500 -0.2784 -0.0990
  496SOL    HW1 1731   4.036   0.744   2.705  1.0607 -0.6058 -1.0268
  496SOL    HW2 1732   4.145   0.844   2.672  0.5381  0.7280  1.0416
  497SOL     OW 1733   0.900   2.581   2.409 -0.0041 -0.0157 -0.1059
  497SOL    HW1 1734   0.904   2.521   2.483 -0.1143 -0.6631 -0.6155
  497SOL    HW2 1735   0.927   2.528   2.334  0.1114  0.6317 -0.5272
  498SOL     OW 1736   1.683   3.378   1.450 -0.2718  0.1966 -0.1761
  498SOL    HW1 1737   1.598   3.420   1.457  0.2408  1.5192 -1.4517
  498SOL    HW2 1738   1.723   3.416   1.372  1.5454 -0.2731  0.4627
  499SOL     OW 1739   2.392   2.896   3.057 -0.0621  0.6073 -0.3353
  499SOL    HW1 1740   2.452   2.846   3.002 -0.8248 -0.3077 -0.3637
  499SOL    HW2 1741   2.446   2.924   3.131  0.4361 -0.0977 -0.4184
  500SOL     OW 1742   0.912   2.373   1.173  0.1355 -0.4080 -0.7091
  500SOL    HW1 1743   0.876   2.333   1.252  1.1309  0.2304  0.0818
  500SOL    HW2 1744   0.840   2.368   1.109 -1.2766  0.5546  0.7274
  501SOL     OW 1745   1.104   1.337   0.690 -0.4121  1.0225 -0.3561
  501SOL    HW1 1746   1.095   1.282   0.768 -0.7950  0.0975 -1.0429
  501SOL    HW2 1747   1.080   1.425   0.720  1.2364  1.0499  1.0169
  502SOL     OW 1748   1.977   0.352   2.349 -0.1849  0.5950 -0.1861
  502SOL    HW1 1749   1.957   0.422   2.287  1.0410  1.7417  0.6587
  502SOL    HW2 1750   2.046   0.388   2.405  0.4395 -1.2649  0.3268
  503SOL     OW 1751   3.774   3.968   0.413  0.8576  0.3875  0.2220
  503SOL    HW1 1752   3.682   3.976   0.437 -0.4474 -0.4600 -3.7706
  503SOL    HW2 1753   3.800   4.056   0.387  0.0693  0.1002 -1.7305
  504SOL     OW 1754   1.909   3.005   1.466 -0.5022  0.1637  0.0475
  504SOL    HW1 1755   1.910   2.937   1.398 -0.9764 -1.2249  1.3790
  504SOL    HW2 1756   1.830   3.056   1.446 -1.3148 -0.9716  0.2180
  505SOL     OW 1757   0.180   1.890   2.057 -0.0367 -0.3425 -0.0491
  505SOL    HW1 1758   0.131   1.808   2.056 -0.0418 -0.3440  0.2063
  505SOL    HW2 1759   0.189   1.911   2.150  1.0154 -0.6790 -0.0657
  506SOL     OW 1760   2.184   0.850   0.621  0.2686  0.4555  0.4380
  506SOL    HW1 1761   2.186   0.891   0.707 -1.3231  0.2667  0.5890
  506SOL    HW2 1762   2.099   0.807   0.616  1.1238 -1.2517 -0.4531
  507SOL     OW 1763   1.016   3.211   2.169 -0.5330 -0.4028 -0.0643
  507SOL    HW1 1764   1.043   3.296   2.205 -0.5211  0.2236 -1.4991
  507SOL    HW2 1765   0.970   3.232   2.088 -1.3001 -1.7324 -0.0058
  508SOL     OW 1766   1.238   2.070   2.852 -0.1054 -0.0339  0.0721
  508SOL    HW1 1767   1.226   1.976   2.836 -0.0705 -0.0189 -0.0437
  508SOL    HW2 1768   1.209   2.112   2.771 -3.0497  0.2635  1.1692
  509SOL     OW 1769   1.069   1.173   1.480  0.8829 -1.3230  0.0553
  509SOL    HW1 1770   1.039   1.164   1.570  0.1039  0.6147  0.0650
  509SOL    HW2 1771   0.997   1.137   1.427 -0.0209  0.1761  0.1818
  510SOL     OW 1772   2.006   4.313   1.292 -0.5987 -0.2358 -1.0200
  510SOL    HW1 1773   1.930   4.363   1.263  0.1211  0.4417 -1.8090
  510SOL    HW2 1774   2.043   4.276   1.211  1.3210  1.4936 -1.0262
  511SOL     OW 1775   3.771   3.452   2.666  0.1668  0.0004 -0.2023
  511SOL    HW1 1776   3.729   3.397   2.599 -0.9812  1.5136 -0.7919
  511SOL    HW2 1777   3.710   3.451   2.739  1.4116 -1.6303  0.8872
  512SOL     OW 1778   2.008   0.666   1.225  0.1436 -0.2589 -0.4172
  512SOL    HW1 1779   2.074   0.730   1.253  0.2558 -0.7017  0.3605
  512SOL    HW2 1780   1.926   0.714   1.225  0.3403  0.0812 -0.5781
  513SOL     OW 1781   0.539   3.112   1.175 -0.4636 -0.1734 -0.1397
  513SOL    HW1 1782   0.462   3.120   1.119  0.7087  0.0920 -1.7927
  513SOL    HW2 1783   0.577   3.027   1.151 -0.4191 -0.4587  0.9072
  514SOL     OW 1784   1.924   3.745   0.871 -0.5168  0.4512 -0.3310
  514SOL    HW1 1785   1.829   3.737   0.875 -0.6399  1.5371 -0.7345
  514SOL    HW2 1786   1.942   3.831   0.910 -0.0032  1.8225 -3.3091
  515SOL     OW 1787   2.526   1.994   0.461 -0.5107 -0.2973  0.1903
  515SOL    HW1 1788   2.471   1.924   0.428 -0.2572 -1.7558  2.5839
  515SOL    HW2 1789   2.604   1.950   0.495  0.6326  1.3825 -0.0960
  516SOL     OW 1790   1.979   3.104   2.025 -0.3467 -0.4823  0.3900
  516SOL    HW1 1791   1.916   3.132   2.092 -1.4472  0.1004 -0.8458
  516SOL    HW2 1792   1.971   3.009   2.023  1.2939 -0.7642  2.5656
  517SOL     OW 1793   3.238   1.917   0.325 -0.1958  0.5334  0.5134
  517SOL    HW1 1794   3.278   1.848   0.272  0.0846 -0.0824  1.4935
  517SOL    HW2 1795   3.304   1.985   0.331  1.1759 -0.8763  2.9130
  518SOL     OW 1796   3.366   2.268   1.966 -1.2370 -0.3356  0.2400
  518SOL    HW1 1797   3.395   2.253   1.876  0.6705  1.4569  0.4874
  518SOL    HW2 1798   3.385   2.185   2.011  1.1720 -0.1346 -0.2550
  519SOL     OW 1799   0.596   0.250   1.235 -0.3574  0.3681 -0.3832
  519SOL    HW1 1800   0.564   0.198   1.161 -1.2111  0.8928 -0.3907
  519SOL    HW2 1801   0.666   0.197   1.273 -1.5100 -1.0136 -0.1063
  520SOL     OW 1802   0.723   2.552   1.812  0.1903  0.2464  0.0641
  520SOL    HW1 1803   0.769   2.628   1.777  1.3284 -0.2979  0.3287
  520SOL    HW2 1804   0.675   2.586   1.888  0.0580  0.8466 -0.2805
  521SOL     OW 1805   4.278   1.107   0.706  0.4918  0.0494 -0.7033
  521SOL    HW1 1806   4.244   1.144   0.625 -0.4236 -1.2125 -0.9320
  521SOL    HW2 1807   4.323   1.027   0.679 -0.6369 -0.8934  0.0942
  522SOL     OW 1808   0.185   2.297   1.998 -0.2681  0.0464  0.0427
  522SOL    HW1 1809   0.131   2.227   1.961 -0.1048 -0.2678  0.4000
  522SOL    HW2 1810   0.269   2.288   1.954  0.2167 -0.8913  1.1179
  523SOL     OW 1811   3.096   2.187   0.701 -0.1931 -0.4918 -0.2656
  523SOL    HW1 1812   3.007   2.158   0.721 -0.1165 -0.8937 -0.4957
  523SOL    HW2 1813   3.149   2.154   0.774 -0.1813 -0.5259 -0.2896
  524SOL     OW 1814   1.872   3.474   1.265 -0.1792  0.1149  0.0455
  524SOL    HW1 1815   1.961   3.507   1.277  0.4998 -1.5577 -0.1196
  524SOL    HW2 1816   1.882   3.380   1.256 -1.8207  0.0330 -1.5998
  525SOL     OW 1817   0.803   3.583   1.769  0.2804 -0.0859 -0.3758
  525SOL    HW1 1818   0.728   3.641   1.768  0.6947  0.4590 -0.6426
  525SOL    HW2 1819   0.850   3.604   1.850  0.3177 -0.1989 -0.3664
  526SOL     OW 1820   1.376   0.564   1.058 -0.3293 -0.5573  0.5915
  526SOL    HW1 1821   1.289   0.604   1.048 -0.6574 -1.3411  0.2212
  526SOL    HW2 1822   1.424   0.625   1.113 -1.2162 -0.2466  1.0455
  527SOL     OW 1823   2.332   4.269   2.913  0.4282  0.4394 -0.4743
  527SOL    HW1 1824   2.406   4.212   2.933  0.7739  1.3596  1.0061
  527SOL    HW2 1825   2.255   4.213   2.924  0.6744  0.5129  2.3058
  528SOL     OW 1826   0.747   3.969   0.926  0.6192  0.1479  0.1627
  528SOL    HW1 1827   0.700   4.035   0.978 -0.8930 -0.9758  0.2998
  528SOL    HW2 1828   0.804   4.019   0.868 -1.4409  1.6568 -0.6606
  529SOL     OW 1829   1.543   0.420   1.973  0.5714  0.0262  0.3987
  529SOL    HW1 1830   1.557   0.385   2.061 -0.0100 -0.3024  0.3656
  529SOL    HW2 1831   1.450   0.440   1.970  0.4310 -0.6643 -0.3854
  530SOL     OW 1832   2.526   1.673   1.145 -0.2082 -0.1979  0.1352
  530SOL    HW1 1833   2.478   1.646   1.066  0.5314  1.4547 -0.9469
  530SOL    HW2 1834   2.481   1.753   1.174  1.3177  0.9079 -0.4153
  531SOL     OW 1835   3.698   4.258   1.490  0.3650  0.4512  0.5402
  531SOL    HW1 1836   3.786   4.225   1.508  1.4026  2.8421  0.2120
  531SOL    HW2 1837   3.702   4.289   1.399 -0.9399  0.2198  0.3860
  532SOL     OW 1838   1.337   0.886   1.720 -0.1098 -0.1616 -0.1966
  532SOL    HW1 1839   1.322   0.925   1.634 -1.6145  0.2056  0.1946
  532SOL    HW2 1840   1.311   0.794   1.709  0.8068 -0.4004 -0.4187
  533SOL     OW 1841   2.176   4.206   1.618  0.4652  0.2709  0.5784
  533SOL    HW1 1842   2.176   4.291   1.574  0.6749 -0.0738 -0.1099
  533SOL    HW2 1843   2.087   4.197   1.652 -0.0620  0.0607 -0.7758
  534SOL     OW 1844   0.029   4.276   0.106  0.1866 -0.7311 -0.3604
  534SOL    HW1 1845   0.111   4.290   0.058  0.3471  0.1286  0.1505
  534SOL    HW2 1846  -0.004   4.193   0.072  1.1029 -0.9286 -0.8118
  535SOL     OW 1847   1.068   2.164   1.126  0.2419  0.4828  0.1154
  535SOL    HW1 1848   1.160   2.189   1.132  0.1996  0.3627  1.9322
  535SOL    HW2 1849   1.020   2.244   1.146 -0.1216  0.8477 -1.9999
  536SOL     OW 1850   3.231   0.186   1.321 -1.2543  0.5497 -0.3217
  536SOL    HW1 1851   3.275   0.258   1.367  1.6972 -0.9274 -0.5642
  536SOL    HW2 1852   3.208   0.124   1.390 -0.0887 -0.0383 -0.4257
  537SOL     OW 1853   0.540   3.596   3.123  0.1487 -0.2379 -0.4773
  537SOL    HW1 1854   0.592   3.672   3.098 -0.1156 -0.2958 -1.2411
  537SOL    HW2 1855   0.549   3.535   3.049 -3.0364  0.7872 -1.8924
  538SOL     OW 1856   2.948   3.866   0.687 -0.3901 -0.0570  1.5405
  538SOL    HW1 1857   3.002   3.865   0.766 -0.9227 -1.1057  1.9056
  538SOL    HW2 1858   2.874   3.809   0.707 -0.2332 -0.8346  0.0783
  539SOL     OW 1859   3.658   4.110   0.719 -0.4678  0.7192  0.1399
  539SOL    HW1 1860   3.616   4.181   0.768 -0.5351  1.5969 -1.1474
  539SOL    HW2 1861   3.602   4.097   0.643  1.5487  1.9319 -1.6357
  540SOL     OW 1862   0.065   1.789   0.783  0.1097  0.4713 -0.1541
  540SOL    HW1 1863   0.049   1.726   0.712 -0.8912 -0.4315  0.8403
  540SOL    HW2 1864   0.140   1.840   0.752 -0.8062  0.6766 -2.2291
  541SOL     OW 1865   0.124   3.625   1.521 -0.3139  0.0802 -0.5933
  541SOL    HW1 1866   0.177   3.566   1.468  1.3111  0.7955  0.1636
  541SOL    HW2 1867   0.053   3.571   1.555 -1.6532 -0.3220 -3.7296
  542SOL     OW 1868   0.862   0.328   1.123  0.2402  0.3958  0.9000
  542SOL    HW1 1869   0.925   0.256   1.130 -1.0444 -0.7670  0.8171
  542SOL    HW2 1870   0.789   0.302   1.178 -0.6976  1.1613  0.0497
  543SOL     OW 1871   3.683   1.286   0.315  0.4184 -0.0511  0.2478
  543SOL    HW1 1872   3.665   1.371   0.355 -1.3529  0.9059 -2.2826
  543SOL    HW2 1873   3.601   1.262   0.272  1.2032 -2.5533 -0.0422
  544SOL     OW 1874   0.379   1.981   2.634 -0.4420 -0.2088  0.4111
  544SOL    HW1 1875   0.436   2.041   2.585 -0.9402  0.0567  0.1497
  544SOL    HW2 1876   0.361   1.909   2.574 -1.5977  0.4428 -0.0567
  545SOL     OW 1877   0.464   3.870   0.045 -0.0404  0.0690  0.3916
  545SOL    HW1 1878   0.499   3.783   0.063  0.3723  0.3452  0.9623
  545SOL    HW2 1879   0.381   3.854   0.001 -0.0919 -0.6167  0.7234
  546SOL     OW 1880   3.111   3.371   0.034  0.2261 -0.3647 -0.0351
  546SOL    HW1 1881   3.201   3.373   0.002  0.8498 -0.5296  1.6129
  546SOL    HW2 1882   3.065   3.436  -0.019  1.4906  0.2398 -0.4282
  547SOL     OW 1883   0.331   3.899   2.132 -0.1565  0.4977  0.2578
  547SOL    HW1 1884   0.289   3.889   2.217 -1.5487  1.6394 -0.2415
  547SOL    HW2 1885   0.288   3.976   2.093  2.4350  1.7969 -0.3014
  548SOL     OW 1886   1.442   3.769   1.733 -0.2179  0.0096  0.0281
  548SOL    HW1 1887   1.513   3.808   1.682 -1.1586  1.0594 -0.5151
  548SOL    HW2 1888   1.424   3.832   1.803  0.5362 -1.0611  1.2385
  549SOL     OW 1889   0.384   0.279   0.291  0.3037  0.4229 -0.1214
  549SOL    HW1 1890   0.321   0.207   0.283  1.1927 -0.4434  0.3714
  549SOL    HW2 1891   0.433   0.277   0.209  2.7028 -1.9244  1.1792
  550SOL     OW 1892   0.976   2.451   2.153  0.2889 -0.2533  0.1604
  550SOL    HW1 1893   1.071   2.447   2.165  0.0989 -0.3012  1.9680
  550SOL    HW2 1894   0.949   2.360   2.147  0.3650 -0.2335 -0.6191
  551SOL     OW 1895   1.408   1.949   1.089  0.2196 -0.5122  0.0022
  551SOL    HW1 1896   1.413   1.927   0.996 -0.2972 -0.6653  0.0074
  551SOL    HW2 1897   1.380   1.868   1.131 -2.3128  0.2614 -0.0499
  552SOL     OW 1898   1.440   2.607   1.528  0.4814  0.0106  0.6714
  552SOL    HW1 1899   1.388   2.683   1.554  0.0438 -0.4634  1.2088
  552SOL    HW2 1900   1.497   2.590   1.604  2.7445  1.5953 -0.5377
  553SOL     OW 1901   3.987   0.712   1.379 -0.8620 -0.4561  0.6059
  553SOL    HW1 1902   4.057   0.661   1.338  1.0249  0.9911  1.8590
  553SOL    HW2 1903   3.969   0.666   1.461  0.6209  0.6198  1.5873
  554SOL     OW 1904   3.446   2.979   2.573  0.3786 -0.0963  0.2926
  554SOL    HW1 1905   3.355   2.964   2.599  0.3378 -0.5674 -0.0917
  554SOL    HW2 1906   3.487   2.893   2.581  0.8399  0.1550  0.6467
  555SOL     OW 1907   1.414   0.761   2.159  0.1128  0.0118 -0.0892
  555SOL    HW1 1908   1.370   0.789   2.079  2.4851 -0.0717 -1.5213
  555SOL    HW2 1909   1.375   0.677   2.181  0.2959 -0.5901 -1.9400
  556SOL     OW 1910   4.102   1.429   2.723 -0.1755  0.3768 -0.3570
  556SOL    HW1 1911   4.029   1.478   2.759 -1.1655 -1.5012  0.3549
  556SOL    HW2 1912   4.178   1.486   2.734 -1.2820  1.7615  0.2850
  557SOL     OW 1913   3.479   1.901   1.269  0.5391 -0.1749 -0.0758
  557SOL    HW1 1914   3.526   1.828   1.228  0.5275 -1.0658  1.4290
  557SOL    HW2 1915   3.387   1.874   1.268  0.5109 -0.0925  0.3252
  558SOL     OW 1916   0.910   0.276   0.211 -0.1210 -0.4345 -0.2103
  558SOL    HW1 1917   0.913   0.210   0.141 -0.7555  0.1858 -0.8328
  558SOL    HW2 1918   0.980   0.338   0.188  0.1788 -0.6412  0.1317
  559SOL     OW 1919   1.934   2.396   0.461 -0.0227 -0.1366  0.1134
  559SOL    HW1 1920   2.006   2.381   0.522 -0.3226  0.8981  0.7434
  559SOL    HW2 1921   1.950   2.483   0.426 -1.4526  0.5011  0.9645
  560SOL     OW 1922   2.830   2.567   1.822 -0.0963 -0.1079 -0.6877
  560SOL    HW1 1923   2.808   2.655   1.792 -1.7866 -0.9102 -1.9824
  560SOL    HW2 1924   2.772   2.552   1.897  0.6825  0.1069 -0.0243
  561SOL     OW 1925   1.429   0.676   0.739  0.0058  0.1252  0.0568
  561SOL    HW1 1926   1.357   0.720   0.694  0.4603  0.9180  0.0841
  561SOL    HW2 1927   1.417   0.583   0.719  1.1117  0.5255 -3.1090
  562SOL     OW 1928   4.172   1.241   1.416  0.0558 -0.9907  0.2141
  562SOL    HW1 1929   4.131   1.302   1.354  0.5856 -1.1562 -0.2944
  562SOL    HW2 1930   4.159   1.155   1.377  0.0490 -1.1327  0.5288
  563SOL     OW 1931   3.950   3.538   2.484  1.0410 -0.6424  0.3689
  563SOL    HW1 1932   3.995   3.619   2.508  1.4645 -0.7029 -0.2098
  563SOL    HW2 1933   3.910   3.508   2.565  1.1054  0.0062  0.6471
  564SOL     OW 1934   2.562   1.237   1.701  0.4010 -0.2879  0.4540
  564SOL    HW1 1935   2.498   1.179   1.660  1.2461 -1.1237  0.2952
  564SOL    HW2 1936   2.645   1.191   1.693  1.6633  2.1602 -2.2830
  565SOL     OW 1937   2.395   0.897   2.934  0.8288 -0.0646 -0.4094
  565SOL    HW1 1938   2.374   0.920   2.844  2.0506  0.3663 -0.6129
  565SOL    HW2 1939   2.422   0.805   2.930  0.7467 -0.0862 -0.4627
  566SOL     OW 1940   1.072   0.179   0.829  0.6204 -0.2898 -0.2960
  566SOL    HW1 1941   1.099   0.261   0.788  1.1284  0.2482  1.0625
  566SOL    HW2 1942   0.979   0.171   0.806  0.5350  0.7259 -0.3611
  567SOL     OW 1943   0.951   3.358   2.536  0.0919  0.5130 -0.1044
  567SOL    HW1 1944   0.872   3.412   2.544  0.1573  0.3933  1.6735
  567SOL    HW2 1945   1.000   3.374   2.617  0.7859 -1.1621 -0.1489
  568SOL     OW 1946   2.039   3.537   0.402  0.0796 -0.3906  0.1374
  568SOL    HW1 1947   1.955   3.581   0.389  0.7564  0.6097 -1.1480
  568SOL    HW2 1948   2.016   3.446   0.422 -1.3097 -0.7033 -2.4348
  569SOL     OW 1949   2.548   0.030   2.011 -0.3622  0.6404 -0.4127
  569SOL    HW1 1950   2.482   0.028   2.081 -0.3602  0.9030 -0.4005
  569SOL    HW2 1951   2.505  -0.011   1.936 -0.0777 -0.4127 -0.0205
  570SOL     OW 1952   0.168   4.323   2.636 -0.4083 -0.2535  0.3400
  570SOL    HW1 1953   0.158   4.263   2.563 -1.5180 -1.8526  1.7222
  570SOL    HW2 1954   0.255   4.361   2.625 -1.3677  1.2862 -2.9771
  571SOL     OW 1955   2.269   2.129   2.814 -0.1909  0.0636  0.2885
  571SOL    HW1 1956   2.331   2.070   2.856  0.0586 -0.7974 -1.2415
  571SOL    HW2 1957   2.201   2.072   2.779 -1.1595  0.8864  0.7391
  572SOL     OW 1958   3.675   0.322   2.905 -0.1494  0.5582 -0.8366
  572SOL    HW1 1959   3.671   0.359   2.817 -2.1250  1.5701 -0.3814
  572SOL    HW2 1960   3.639   0.234   2.896  1.0262  0.1049 -1.2691
  573SOL     OW 1961   0.056   1.164   1.713 -0.2235  0.3557 -0.2956
  573SOL    HW1 1962   0.017   1.080   1.689  0.4793 -0.1703  0.3746
  573SOL    HW2 1963   0.052   1.167   1.808  1.4349  0.2330 -0.1879
  574SOL     OW 1964   3.640   0.644   2.425  0.0955  0.6451  0.1500
  574SOL    HW1 1965   3.638   0.676   2.515 -1.4896 -0.0282  0.3855
  574SOL    HW2 1966   3.548   0.638   2.400  0.4845 -0.1325 -1.1688
  575SOL     OW 1967   1.045   1.921   0.007 -0.3546  0.4110 -0.2006
  575SOL    HW1 1968   1.045   2.000  -0.046 -1.5141  0.5478 -0.0215
  575SOL    HW2 1969   1.054   1.953   0.097  0.0627  0.2753 -0.1911
  576SOL     OW 1970   1.757   2.680   1.506 -0.5627  0.2189  0.2666
  576SOL    HW1 1971   1.741   2.761   1.458 -1.0068  0.2628  0.4879
  576SOL    HW2 1972   1.755   2.705   1.598  0.3714  0.1491  0.3233
  577SOL     OW 1973   0.710   3.782   0.193 -0.6104 -0.1468  0.2992
  577SOL    HW1 1974   0.661   3.861   0.218 -0.3314  0.1723 -0.1439
  577SOL    HW2 1975   0.660   3.710   0.231 -0.2048  0.3145  1.7868
  578SOL     OW 1976   2.237   0.661   3.077  0.6698  0.5812 -0.4271
  578SOL    HW1 1977   2.319   0.636   3.034 -0.2779 -1.3831 -1.2074
  578SOL    HW2 1978   2.223   0.593   3.143 -0.2291  1.0163 -0.1654
  579SOL     OW 1979   2.780   1.648   1.995 -0.3699 -0.7917  0.2281
  579SOL    HW1 1980   2.787   1.720   1.933  0.1083  0.1324  1.3072
  579SOL    HW2 1981   2.823   1.574   1.952  0.1395 -0.1185 -0.4411
  580SOL     OW 1982   0.937   0.417   3.029  0.3613 -0.2618  0.2977
  580SOL    HW1 1983   0.848   0.449   3.045  0.9083  0.7708  1.4175
  580SOL    HW2 1984   0.926   0.348   2.963 -0.9429  1.9279 -1.9594
  581SOL     OW 1985   0.543   1.581   1.133 -0.1132  0.3145  0.0455
  581SOL    HW1 1986   0.474   1.624   1.184 -0.1009 -0.7675  1.0335
  581SOL    HW2 1987   0.500   1.552   1.053 -0.2034  1.8049 -0.4762
  582SOL     OW 1988   2.243   0.123   0.049  0.2125  0.5142 -0.2960
  582SOL    HW1 1989   2.180   0.074  -0.004  0.3317  0.3576 -0.2912
  582SOL    HW2 1990   2.225   0.097   0.139  0.1805  0.5869 -0.2816
  583SOL     OW 1991   3.962   3.363   0.288 -0.3232 -0.8770  0.2742
  583SOL    HW1 1992   3.901   3.438   0.285 -0.1907 -0.7276  1.0701
  583SOL    HW2 1993   3.994   3.355   0.198 -0.4307 -0.0507  0.1508
  584SOL     OW 1994   0.333   2.124   0.996 -0.2010 -0.3694  0.0371
  584SOL    HW1 1995   0.242   2.141   0.972  0.2584  0.4315 -1.2198
  584SOL    HW2 1996   0.345   2.173   1.078 -1.2982 -1.7107  1.0533
  585SOL     OW 1997   4.285   3.535   3.010  0.4992 -0.0490 -0.0353
  585SOL    HW1 1998   4.223   3.545   2.937  0.0634  4.4535  0.6800
  585SOL    HW2 1999   4.258   3.453   3.052 -1.0576 -1.3658 -3.1851
  586SOL     OW 2000   0.017   3.477   1.208 -0.3664 -0.2500  0.1542
  586SOL    HW1 2001  -0.006   3.453   1.298 -0.1690 -0.5405  0.1293
  586SOL    HW2 2002   0.105   3.513   1.214 -1.5529  2.9001  0.5757
  587SOL     OW 2003   0.293   1.460   0.230 -0.3964 -0.2340  0.6129
  587SOL    HW1 2004   0.363   1.507   0.186 -1.2623  1.7356  1.2371
  587SOL    HW2 2005   0.217   1.472   0.173 -0.3954 -1.8788  0.2152
  588SOL     OW 2006   1.064   0.127   1.133 -0.5661  0.4801 -0.0465
  588SOL    HW1 2007   1.155   0.134   1.163 -0.1582 -1.3038 -0.7592
  588SOL    HW2 2008   1.070   0.118   1.038 -1.4430 -0.2846 -0.0458
  589SOL     OW 2009   0.025   0.361   0.407  0.0509 -0.2675  0.0898
  589SOL    HW1 2010   0.117   0.371   0.431 -0.5232  1.1166  1.9217
  589SOL    HW2 2011   0.021   0.396   0.317  0.9893  1.5992  0.7136
  590SOL     OW 2012   0.685   0.993   3.078  0.7520 -0.3827  0.3202
  590SOL    HW1 2013   0.648   0.929   3.139 -0.2625  0.2564  0.3921
  590SOL    HW2 2014   0.752   1.039   3.129 -0.2130  0.2719  1.0353
  591SOL     OW 2015   0.048   1.133   2.252 -0.2210 -0.3604 -0.2036
  591SOL    HW1 2016   0.093   1.049   2.263  1.5267  0.7501  1.9212
  591SOL    HW2 2017  -0.033   1.125   2.302  0.4231 -0.4727  0.8419
  592SOL     OW 2018   4.230   4.019   1.695  0.4517 -0.0383 -0.1950
  592SOL    HW1 2019   4.286   4.095   1.677  0.3993 -0.0520 -0.4174
  592SOL    HW2 2020   4.252   3.994   1.785  0.4815  0.2305 -0.1261
  593SOL     OW 2021   3.263   4.288   2.919  0.3814 -0.5049 -0.5459
  593SOL    HW1 2022   3.287   4.377   2.944  0.4027 -0.5454 -0.4259
  593SOL    HW2 2023   3.172   4.295   2.890  0.5322 -0.3548 -0.9935
  594SOL     OW 2024   1.623   2.587   2.293  0.3069  0.1761 -0.0118
  594SOL    HW1 2025   1.587   2.577   2.381 -1.4767  1.5564 -0.5042
  594SOL    HW2 2026   1.710   2.626   2.307  0.3228 -0.2355  1.1446
  595SOL     OW 2027   0.206   4.019   0.302 -0.1830 -0.4559 -0.0016
  595SOL    HW1 2028   0.166   3.939   0.336 -0.3689  0.1419  1.2665
  595SOL    HW2 2029   0.193   4.015   0.208 -0.0953 -1.9699  0.0280
  596SOL     OW 2030   2.381   2.692   1.518  0.0360 -0.4706 -0.0681
  596SOL    HW1 2031   2.288   2.673   1.525 -0.1255 -0.0601 -0.8980
  596SOL    HW2 2032   2.387   2.751   1.443  0.8860  0.0709  0.4173
  597SOL     OW 2033   1.701   0.568   2.489 -0.6271 -0.0735  0.6022
  597SOL    HW1 2034   1.784   0.549   2.532  0.6310  0.7581 -1.3408
  597SOL    HW2 2035   1.687   0.662   2.503 -1.6455 -0.3374  1.5307
  598SOL     OW 2036   2.779   3.224   0.595 -0.3780  0.1617 -0.1893
  598SOL    HW1 2037   2.764   3.148   0.651 -1.6676  0.6288  0.1416
  598SOL    HW2 2038   2.803   3.186   0.510  0.7797 -0.5626  0.4443
  599SOL     OW 2039   4.293   3.752   0.057 -0.3798 -0.2783 -0.2551
  599SOL    HW1 2040   4.222   3.730   0.118 -1.6910  0.8048 -1.3382
  599SOL    HW2 2041   4.299   3.675  -0.000 -1.0805 -0.1402 -0.5194
  600SOL     OW 2042   0.499   3.129   3.099 -0.1417  0.2198 -0.5779
  600SOL    HW1 2043   0.470   3.172   3.179 -0.8825  0.7898 -1.1408
  600SOL    HW2 2044   0.523   3.200   3.041 -3.0944  0.0817 -2.1903
  601SOL     OW 2045   4.250   0.024   1.134  0.0827  0.0445 -0.2958
  601SOL    HW1 2046   4.283   0.083   1.067 -1.8452  0.7808 -0.6734
  601SOL    HW2 2047   4.226  -0.055   1.086  2.3536 -1.0082  0.1629
  602SOL     OW 2048   1.158   4.171   1.557 -0.4377 -0.0104 -0.1308
  602SOL    HW1 2049   1.234   4.129   1.516  0.0331  0.3016  0.4002
  602SOL    HW2 2050   1.192   4.256   1.586 -1.6880  1.3630 -2.3847
  603SOL     OW 2051   0.264   0.656   1.971  0.5433  0.4272  0.9744
  603SOL    HW1 2052   0.196   0.623   2.029 -0.5096  0.4945 -0.1866
  603SOL    HW2 2053   0.257   0.751   1.977  0.9575  0.4422  1.3114
  604SOL     OW 2054   0.234   3.420   0.955  0.3298 -0.1141 -0.0857
  604SOL    HW1 2055   0.153   3.456   0.991  0.2604  0.6288 -0.9227
  604SOL    HW2 2056   0.265   3.489   0.895  1.1786 -0.7056 -0.3400
  605SOL     OW 2057   2.615   3.291   0.223 -0.3519 -0.1744 -0.1201
  605SOL    HW1 2058   2.703   3.262   0.248 -0.1244  0.6409  0.0414
  605SOL    HW2 2059   2.591   3.355   0.289 -0.3483  0.9127 -1.1406
  606SOL     OW 2060   0.538   2.161   0.818 -0.2040  0.8791 -0.0758
  606SOL    HW1 2061   0.550   2.079   0.770  3.1903 -0.5370  2.7694
  606SOL    HW2 2062   0.475   2.140   0.886  0.8799  0.4455  0.8317
  607SOL     OW 2063   1.446   0.828   2.431 -0.0570  0.3745  0.4165
  607SOL    HW1 2064   1.386   0.767   2.473 -0.2817  1.5129  1.7988
  607SOL    HW2 2065   1.433   0.813   2.337 -0.7157 -1.0904  0.7123
  608SOL     OW 2066   1.327   1.273   0.521 -0.2604  0.1564 -0.1913
  608SOL    HW1 2067   1.256   1.320   0.564  0.6070  0.1864  1.2851
  608SOL    HW2 2068   1.350   1.203   0.582  0.5922 -0.1919 -0.8879
  609SOL     OW 2069   3.821   4.277   0.009 -0.4901  0.4056  0.3431
  609SOL    HW1 2070   3.858   4.358  -0.025  0.7000 -0.7815 -1.3924
  609SOL    HW2 2071   3.742   4.304   0.056 -2.4036  2.2581 -3.4923
  610SOL     OW 2072   1.398   3.258   1.816 -0.0347 -0.5708  0.3855
  610SOL    HW1 2073   1.307   3.231   1.828 -0.4612  1.1627  1.4650
  610SOL    HW2 2074   1.397   3.352   1.836  1.4559  0.1359 -2.3886
  611SOL     OW 2075   1.987   3.684   2.346  0.3517 -0.3869  0.8291
  611SOL    HW1 2076   2.010   3.602   2.304  0.9916  0.0702  0.2688
  611SOL    HW2 2077   2.036   3.751   2.298 -2.3615  0.6977 -0.6516
  612SOL     OW 2078   2.928   0.010   2.971  0.7342  0.6240  0.5752
  612SOL    HW1 2079   2.895   0.056   2.894  2.1842 -1.0862 -1.1672
  612SOL    HW2 2080   2.975   0.077   3.021  0.1795  1.6704 -0.2753
  613SOL     OW 2081   1.613   0.586   1.772 -0.6801 -0.0964  0.1600
  613SOL    HW1 2082   1.624   0.676   1.803 -0.7599 -0.1403  0.3164
  613SOL    HW2 2083   1.599   0.535   1.852  1.0661 -0.5130  0.2493
  614SOL     OW 2084   2.652   3.855   2.674 -0.3103  0.1049 -0.2421
  614SOL    HW1 2085   2.647   3.781   2.735 -0.6030  1.1983  1.1319
  614SOL    HW2 2086   2.699   3.822   2.598 -1.5596 -1.8465 -0.2103
  615SOL     OW 2087   1.082   3.103   0.800  0.1191 -0.3973 -0.1046
  615SOL    HW1 2088   1.062   3.033   0.862  0.6657  0.0905  0.6371
  615SOL    HW2 2089   1.056   3.184   0.845 -1.0375 -0.1472 -1.1729
  616SOL     OW 2090   2.109   0.594   1.878  0.6668  0.1770 -0.0601
  616SOL    HW1 2091   2.150   0.623   1.960 -0.9302 -1.6465  1.4980
  616SOL    HW2 2092   2.114   0.498   1.882 -1.0198 -0.0035 -1.2436
  617SOL     OW 2093   1.014   3.657   1.385 -0.1281  0.0702 -0.5419
  617SOL    HW1 2094   0.987   3.688   1.299 -0.5557  0.5301 -0.2517
  617SOL    HW2 2095   0.948   3.592   1.408 -0.2415  0.2367 -0.3942
  618SOL     OW 2096   2.488   1.483   0.040  0.1648  0.1190 -0.3136
  618SOL    HW1 2097   2.495   1.565   0.089 -0.5006  0.6772 -1.1110
  618SOL    HW2 2098   2.577   1.465   0.009  0.3410  0.4631 -0.0126
  619SOL     OW 2099   3.571   2.724   2.525 -0.1289 -0.0092 -0.0923
  619SOL    HW1 2100   3.563   2.715   2.620  0.3559  0.0131 -0.0473
  619SOL    HW2 2101   3.618   2.645   2.497  1.2729  0.7862 -0.0893
  620SOL     OW 2102   1.546   2.644   0.359  0.1276 -0.9806 -0.5706
  620SOL    HW1 2103   1.640   2.632   0.347  0.2501 -0.4758 -0.1379
  620SOL    HW2 2104   1.538   2.686   0.445 -0.5690 -2.1578 -0.0430
  621SOL     OW 2105   0.446   2.603   2.631  0.0353 -0.1492 -0.0532
  621SOL    HW1 2106   0.484   2.527   2.674  0.3630  0.9585  1.7406
  621SOL    HW2 2107   0.484   2.678   2.677 -2.2528  1.0591  0.0381
  622SOL     OW 2108   1.894   0.183   0.259 -0.1048  0.1378 -0.0034
  622SOL    HW1 2109   1.848   0.100   0.246  0.3975  0.0018 -0.9940
  622SOL    HW2 2110   1.985   0.157   0.273 -0.1036  0.4759  0.6343
  623SOL     OW 2111   2.387   2.011   0.930 -0.4108 -0.4536  0.4644
  623SOL    HW1 2112   2.430   2.090   0.964 -0.5901  0.5542 -1.5048
  623SOL    HW2 2113   2.458   1.960   0.890 -0.8426  1.3054 -2.9674
  624SOL     OW 2114   0.263   4.199   2.980  0.0789 -0.6843 -0.0341
  624SOL    HW1 2115   0.228   4.286   2.962  0.2414 -0.3491  1.1650
  624SOL    HW2 2116   0.311   4.175   2.901 -1.0190 -0.2324 -0.8601
  625SOL     OW 2117   2.333   3.670   2.470 -0.7967 -0.4386  0.1774
  625SOL    HW1 2118   2.334   3.743   2.532 -2.8550 -0.0237 -0.1903
  625SOL    HW2 2119   2.270   3.608   2.506 -2.0967 -0.1649 -1.4634
  626SOL     OW 2120   2.922   0.068   1.820  0.5706  0.4740  0.5082
  626SOL    HW1 2121   2.948   0.158   1.838 -0.2711  0.9823 -0.6799
  626SOL    HW2 2122   3.001   0.025   1.789  0.9406  0.8425  0.9357
  627SOL     OW 2123   0.129   1.519   1.221  0.4136  0.6256  0.2976
  627SOL    HW1 2124   0.098   1.437   1.258 -2.9137  2.0924  1.0908
  627SOL    HW2 2125   0.094   1.521   1.132  1.6271  0.6504 -0.2106
  628SOL     OW 2126   3.485   2.402   2.216 -0.5995 -0.3198  0.0020
  628SOL    HW1 2127   3.519   2.490   2.199 -3.1786  1.0327  1.2538
  628SOL    HW2 2128   3.450   2.374   2.131 -0.6174  0.2654 -0.1918
  629SOL     OW 2129   4.356   0.964   2.544 -0.1230  0.5250 -0.1924
  629SOL    HW1 2130   4.444   0.997   2.563 -0.2008  1.4154 -1.2584
  629SOL    HW2 2131   4.306   1.043   2.522 -0.6398 -0.1716 -1.6206
  630SOL     OW 2132   2.222   0.120   0.715  0.1438  0.2360 -0.3345
  630SOL    HW1 2133   2.289   0.110   0.646 -0.3432 -2.8423 -0.5007
  630SOL    HW2 2134   2.143   0.081   0.677 -0.6957  0.3138  1.2635
  631SOL     OW 2135   1.026   0.214   2.666  0.3355  0.3084  0.3240
  631SOL    HW1 2136   0.945   0.170   2.690  0.3577 -0.6087 -1.1270
  631SOL    HW2 2137   1.095   0.156   2.697  0.4231  0.6814  0.8304
  632SOL     OW 2138   3.844   0.110   0.242  0.4726 -0.3279  0.0939
  632SOL    HW1 2139   3.751   0.126   0.225 -0.1090 -2.6651  0.7116
  632SOL    HW2 2140   3.859   0.145   0.330 -0.2502 -1.3258  0.6363
  633SOL     OW 2141   2.907   1.294   0.578 -0.0314  0.0354  0.0244
  633SOL    HW1 2142   2.920   1.303   0.673  0.1503 -0.4612  0.0528
  633SOL    HW2 2143   2.912   1.200   0.563 -2.6075 -0.1492 -0.1184
  634SOL     OW 2144   3.081   0.775   1.521  0.1904 -0.3129  0.1038
  634SOL    HW1 2145   3.108   0.708   1.458  0.7459 -1.5546  1.5800
  634SOL    HW2 2146   3.124   0.855   1.491 -2.2372 -0.0087 -2.9441
  635SOL     OW 2147   0.560   1.091   1.572  0.0122  0.5440 -0.1748
  635SOL    HW1 2148   0.576   1.182   1.597 -1.4804  0.3387  1.7654
  635SOL    HW2 2149   0.594   1.084   1.483 -0.6234  3.2271 -0.7117
  636SOL     OW 2150   4.228   1.547   2.997 -0.2373 -0.3325  0.1977
  636SOL    HW1 2151   4.180   1.466   3.011  0.3578 -0.5017  1.4468
  636SOL    HW2 2152   4.160   1.614   2.991 -0.8013 -1.0164 -2.0291
  637SOL     OW 2153   0.232   3.223   2.066  0.8327 -0.0227 -0.6399
  637SOL    HW1 2154   0.166   3.277   2.109  0.3452  0.0145 -1.4080
  637SOL    HW2 2155   0.227   3.138   2.109  1.6821  0.5592  0.6564
  638SOL     OW 2156   3.800   3.418   2.264  0.1189  0.2163 -0.2396
  638SOL    HW1 2157   3.829   3.473   2.191 -1.0230  1.2962  0.0818
  638SOL    HW2 2158   3.858   3.442   2.336  0.5634 -0.0643 -0.5059
  639SOL     OW 2159   2.331   0.286   0.915  0.0407  0.2001 -0.5344
  639SOL    HW1 2160   2.336   0.203   0.867  0.7814  0.9526 -1.8039
  639SOL    HW2 2161   2.300   0.349   0.851  1.0515  1.2351 -0.0304
  640SOL     OW 2162   3.015   3.151   3.079 -0.2865  0.1093  0.4453
  640SOL    HW1 2163   2.962   3.134   3.002 -0.1900  2.9263 -0.3485
  640SOL    HW2 2164   3.076   3.077   3.083 -1.4577 -0.9977 -1.1216
  641SOL     OW 2165   0.345   2.043   0.422 -0.1551 -0.4374  0.3928
  641SOL    HW1 2166   0.426   2.086   0.396 -0.2184 -0.5120  0.0641
  641SOL    HW2 2167   0.311   2.004   0.341  0.4500 -2.0180  0.8465
  642SOL     OW 2168   1.352   0.385   2.774  0.0060 -0.2987  0.2499
  642SOL    HW1 2169   1.395   0.375   2.690 -1.2443 -1.5626 -0.2754
  642SOL    HW2 2170   1.419   0.423   2.831  0.6081  1.4368 -1.5146
  643SOL     OW 2171   2.508   3.307   2.202 -0.1171 -0.0823  0.1225
  643SOL    HW1 2172   2.436   3.349   2.155 -0.6105 -0.6529  0.3619
  643SOL    HW2 2173   2.481   3.311   2.294  0.6148  0.5885  0.3255
  644SOL     OW 2174   0.333   3.162   1.016  0.0290  0.1406  0.3274
  644SOL    HW1 2175   0.340   3.254   0.987  0.7327 -0.0021  0.0116
  644SOL    HW2 2176   0.259   3.161   1.076  0.6002  1.1191  1.0804
  645SOL     OW 2177   3.796   0.436   2.291 -0.6623  0.3193  0.3116
  645SOL    HW1 2178   3.749   0.517   2.311 -1.3398  0.5364 -1.8512
  645SOL    HW2 2179   3.731   0.381   2.246  0.3725 -0.5442 -0.1704
  646SOL     OW 2180   4.311   0.140   0.017 -0.6186 -0.0474  0.0803
  646SOL    HW1 2181   4.303   0.049   0.045 -1.4954  0.5007  1.7410
  646SOL    HW2 2182   4.244   0.187   0.067 -0.4532  1.4588 -1.0300
  647SOL     OW 2183   1.253   0.260   0.470 -0.6598  0.3019 -0.3797
  647SOL    HW1 2184   1.228   0.326   0.406 -0.5636 -0.0588 -0.7905
  647SOL    HW2 2185   1.204   0.182   0.445 -2.5151  0.8056  1.4191
  648SOL     OW 2186   2.612   4.198   2.502 -0.7456 -0.2454  0.2770
  648SOL    HW1 2187   2.558   4.142   2.447  0.3389 -0.6039 -0.4557
  648SOL    HW2 2188   2.696   4.202   2.457  0.4422 -1.1569  2.2938
  649SOL     OW 2189   3.148   0.386   1.564  0.6342  0.4979  0.6085
  649SOL    HW1 2190   3.244   0.383   1.560  0.8642  2.4143  2.6646
  649SOL    HW2 2191   3.123   0.450   1.497  0.6347 -0.8915 -0.7765
  650SOL     OW 2192   3.905   2.662   0.041  0.1473  0.1982  0.6429
  650SOL    HW1 2193   3.998   2.661   0.063 -0.1995  1.4405  2.4101
  650SOL    HW2 2194   3.861   2.653   0.125 -1.3210  1.2397  0.0253
  651SOL     OW 2195   1.559   0.485   0.211  0.2767 -0.1575  0.3179
  651SOL    HW1 2196   1.581   0.423   0.141  1.8308 -0.0982  0.7006
  651SOL    HW2 2197   1.539   0.567   0.165  1.0317 -0.1855 -0.0826
  652SOL     OW 2198   4.095   2.113   2.818 -0.2724 -0.2917 -0.0493
  652SOL    HW1 2199   4.153   2.043   2.789  0.5215 -0.3498  1.5647
  652SOL    HW2 2200   4.053   2.145   2.738  1.9168 -0.2903 -1.2577
  653SOL     OW 2201   3.979   0.515   1.113 -0.7068 -0.1132  0.0301
  653SOL    HW1 2202   3.893   0.531   1.073 -0.2775  0.0123 -0.8681
  653SOL    HW2 2203   3.960   0.458   1.187 -1.6918  0.6994  0.4398
  654SOL     OW 2204   4.036   1.973   0.236 -0.4796  0.3418  0.3102
  654SOL    HW1 2205   3.959   1.917   0.225  1.3045 -2.0521 -0.9538
  654SOL    HW2 2206   4.054   1.971   0.330 -0.5499 -1.1356  0.3172
  655SOL     OW 2207   2.170   2.844   2.769 -0.6592  0.2985  0.2974
  655SOL    HW1 2208   2.164   2.842   2.673 -1.9480 -1.9084  0.3600
  655SOL    HW2 2209   2.174   2.937   2.791 -1.8814  0.9216 -1.8240
  656SOL     OW 2210   0.122   3.126   2.910 -0.1419 -0.0347  0.1401
  656SOL    HW1 2211   0.195   3.065   2.922 -0.7061 -0.8491 -0.4367
  656SOL    HW2 2212   0.157   3.211   2.936  0.8899 -0.4825  0.2597
  657SOL     OW 2213   0.962   2.228   0.551  0.7730 -0.2904 -0.4413
  657SOL    HW1 2214   0.968   2.140   0.515 -1.6164  0.1148 -2.0573
  657SOL    HW2 2215   0.952   2.285   0.475  0.8606  1.2265  0.6358
  658SOL     OW 2216   3.366   2.755   2.355  0.9132  0.4330 -0.1163
  658SOL    HW1 2217   3.432   2.760   2.424  1.8318 -0.4107 -0.9123
  658SOL    HW2 2218   3.404   2.804   2.282  0.1200  0.9752 -0.1790
  659SOL     OW 2219   2.317   3.305   2.975 -0.1982 -0.9234 -0.0793
  659SOL    HW1 2220   2.400   3.350   2.960 -1.8294  1.8907 -1.4015
  659SOL    HW2 2221   2.296   3.322   3.067  0.6549 -1.6991  0.2795
  660SOL     OW 2222   0.814   4.070   1.934 -0.2011 -0.0146 -0.0160
  660SOL    HW1 2223   0.767   4.000   1.981 -0.3064  0.1788  0.1681
  660SOL    HW2 2224   0.745   4.115   1.884 -0.0751 -0.2815 -0.4364
  661SOL     OW 2225   2.322   2.604   2.698  0.7682 -0.3575 -0.9370
  661SOL    HW1 2226   2.269   2.678   2.725 -0.1213 -1.0451 -0.7715
  661SOL    HW2 2227   2.313   2.540   2.768  1.3447 -0.7251 -1.1855
  662SOL     OW 2228   1.237   2.469   2.092 -0.7912  0.3258 -0.1162
  662SOL    HW1 2229   1.322   2.430   2.073 -0.3190  0.6553  1.2635
  662SOL    HW2 2230   1.256   2.555   2.128 -1.7552  0.8880 -0.8929
  663SOL     OW 2231   0.494   2.199   2.458  0.0707  0.3342 -0.6106
  663SOL    HW1 2232   0.559   2.261   2.425 -1.6455  1.7969 -1.4649
  663SOL    HW2 2233   0.419   2.210   2.398 -0.9577 -1.2639  0.3263
  664SOL     OW 2234   1.978   0.863   2.082  0.1569  0.0442  0.3196
  664SOL    HW1 2235   2.011   0.823   2.001  2.0813  0.1225  1.0188
  664SOL    HW2 2236   1.905   0.807   2.108  0.4236 -0.8230 -0.7066
  665SOL     OW 2237   3.853   1.158   2.684 -0.3867 -0.3229  0.6278
  665SOL    HW1 2238   3.851   1.148   2.589 -1.3976  2.0004  0.3442
  665SOL    HW2 2239   3.825   1.073   2.717 -2.0597 -0.5571 -1.2041
  666SOL     OW 2240   0.726   1.839   0.909 -0.6837  0.5956  0.3046
  666SOL    HW1 2241   0.796   1.903   0.923 -1.1683  1.2724 -0.2286
  666SOL    HW2 2242   0.659   1.863   0.972 -0.2749 -0.3244  1.1142
  667SOL     OW 2243   3.376   1.512   2.850 -0.3049 -0.6309  0.1470
  667SOL    HW1 2244   3.310   1.467   2.798  0.7483 -1.4242 -0.5298
  667SOL    HW2 2245   3.459   1.485   2.812  0.4232  0.1956  1.1101
  668SOL     OW 2246   2.422   0.701   0.701  0.1587  0.0565  0.1907
  668SOL    HW1 2247   2.360   0.766   0.668  0.0363 -1.0544 -1.9379
  668SOL    HW2 2248   2.370   0.646   0.759  0.3460  1.9736  2.3293
  669SOL     OW 2249   1.683   1.290   1.998  0.4069 -0.7184  0.2537
  669SOL    HW1 2250   1.643   1.344   1.930  1.2711  0.8148  0.9049
  669SOL    HW2 2251   1.640   1.205   1.990 -0.6529 -0.0891 -1.1354
  670SOL     OW 2252   2.200   3.290   2.687  0.7620  0.1960 -0.3631
  670SOL    HW1 2253   2.223   3.217   2.744 -0.2820 -0.8023 -1.1852
  670SOL    HW2 2254   2.276   3.301   2.630  0.8546 -0.3705 -0.3532
  671SOL     OW 2255   3.006   1.603   0.230  0.1393  0.1800  0.1695
  671SOL    HW1 2256   3.094   1.635   0.209  0.4609  0.1335  1.3981
  671SOL    HW2 2257   2.990   1.632   0.320 -0.9790 -0.0893  0.0762
  672SOL     OW 2258   4.361   0.484   3.042 -0.0997  0.1475  0.5380
  672SOL    HW1 2259   4.443   0.466   3.086 -0.1933  0.3758  0.8070
  672SOL    HW2 2260   4.302   0.513   3.111 -1.0013 -1.8877  0.6951
  673SOL     OW 2261   1.413   2.240   2.998  0.2427  0.0491 -0.1924
  673SOL    HW1 2262   1.336   2.198   2.960  1.2255 -1.0663 -1.0339
  673SOL    HW2 2263   1.484   2.178   2.982  1.7838  2.0432 -1.5376
  674SOL     OW 2264   0.549   2.178   2.799  0.4292 -0.4098  0.3515
  674SOL    HW1 2265   0.606   2.164   2.874  1.7972 -0.0922 -0.5823
  674SOL    HW2 2266   0.603   2.155   2.723 -1.1058 -1.3250 -0.5129
  675SOL     OW 2267   1.776   3.650   2.542  0.3775 -0.1478  0.5972
  675SOL    HW1 2268   1.713   3.718   2.570  0.4744 -0.0243  0.5154
  675SOL    HW2 2269   1.854   3.699   2.518 -0.8947  0.1609 -3.5975
  676SOL     OW 2270   3.939   4.323   2.988 -0.0949 -0.0741  0.1109
  676SOL    HW1 2271   3.897   4.237   2.982  1.2057 -0.7420  0.1834
  676SOL    HW2 2272   3.875   4.378   3.033 -1.4230 -0.6719 -0.9712
  677SOL     OW 2273   3.973   1.616   0.434  0.2178 -0.2096  0.0541
  677SOL    HW1 2274   3.942   1.655   0.516  0.7953  1.2666 -0.4162
  677SOL    HW2 2275   3.902   1.631   0.372  0.2483 -0.3419 -0.0140
  678SOL     OW 2276   2.575   0.752   2.254  0.6173 -0.0754 -0.4098
  678SOL    HW1 2277   2.608   0.731   2.167  0.3583  0.7264 -0.7151
  678SOL    HW2 2278   2.644   0.805   2.295  0.7070 -0.3869 -0.1586
  679SOL     OW 2279   3.653   3.839   0.909  0.1473  0.0950  0.6576
  679SOL    HW1 2280   3.633   3.798   0.825  2.3704 -0.6451  0.4371
  679SOL    HW2 2281   3.625   3.930   0.898 -0.8036 -0.3012 -0.4048
  680SOL     OW 2282   3.601   3.710   1.296 -0.4948  0.4328 -0.1802
  680SOL    HW1 2283   3.582   3.804   1.302  0.6101  0.6831 -0.4502
  680SOL    HW2 2284   3.655   3.692   1.373  0.2339  0.2646 -0.7185
  681SOL     OW 2285   3.420   3.805   0.514 -0.6026  0.0697 -0.2500
  681SOL    HW1 2286   3.499   3.778   0.561  0.8798  0.1270 -2.5712
  681SOL    HW2 2287   3.372   3.859   0.577  1.9683  1.3499  0.7285
  682SOL     OW 2288   0.721   1.990   0.456  0.0214 -0.3667 -0.3990
  682SOL    HW1 2289   0.698   1.963   0.367 -1.0634 -3.9941  0.8416
  682SOL    HW2 2290   0.817   1.989   0.457  0.0811  0.8262 -1.7614
  683SOL     OW 2291   3.412   1.221   0.514 -1.0589  0.5217  0.0166
  683SOL    HW1 2292   3.340   1.161   0.492 -0.4075 -0.7923  1.2957
  683SOL    HW2 2293   3.489   1.164   0.520 -0.5444  1.3534  1.9317
  684SOL     OW 2294   4.383   1.395   1.551 -0.2232 -0.1002 -0.1248
  684SOL    HW1 2295   4.414   1.319   1.601  0.0662  0.9812  1.3931
  684SOL    HW2 2296   4.297   1.368   1.518 -0.1036 -1.1111  0.3397
  685SOL     OW 2297   0.820   4.413   0.047  0.0409  0.0778 -0.2259
  685SOL    HW1 2298   0.883   4.349   0.014  0.0750  0.3938 -0.7920
  685SOL    HW2 2299   0.804   4.387   0.137  2.6427  1.2519  0.6787
  686SOL     OW 2300   3.416   0.287   1.524  0.3255 -0.6714  0.1650
  686SOL    HW1 2301   3.487   0.241   1.478  0.3278  1.1596 -1.8314
  686SOL    HW2 2302   3.461   0.333   1.595  1.2323  0.5630 -1.1449
  687SOL     OW 2303   1.666   2.945   1.696 -0.0328 -0.5076 -0.5869
  687SOL    HW1 2304   1.654   3.013   1.763 -1.3926 -1.8271  0.5632
  687SOL    HW2 2305   1.677   2.994   1.614  2.4932  1.1769  0.6431
  688SOL     OW 2306   3.425   0.386   2.563  0.7987 -0.0954  0.3678
  688SOL    HW1 2307   3.340   0.410   2.527  0.9760  0.5148  0.3438
  688SOL    HW2 2308   3.405   0.334   2.640  0.3367  2.2209  1.8966
  689SOL     OW 2309   0.648   0.473   3.064  0.2718 -0.0650  0.2455
  689SOL    HW1 2310   0.650   0.443   3.155 -1.7379  2.1244  1.1401
  689SOL    HW2 2311   0.554   0.482   3.044  0.6614  2.8155 -0.7911
  690SOL     OW 2312   0.473   2.419  -0.001  0.6043 -0.5045  0.4183
  690SOL    HW1 2313   0.379   2.434   0.008  0.4547 -0.2213 -1.3332
  690SOL    HW2 2314   0.511   2.507   0.007  0.6784 -0.5446  0.5135
  691SOL     OW 2315   4.152   0.369   2.866  0.3565 -0.0316 -0.4762
  691SOL    HW1 2316   4.236   0.415   2.870  1.1683 -1.5350  1.7143
  691SOL    HW2 2317   4.160   0.312   2.790  0.7140  0.8906 -1.1525
  692SOL     OW 2318   0.218   3.498   0.506  0.0468  0.0131 -0.2619
  692SOL    HW1 2319   0.248   3.531   0.591  0.7146 -1.6390  0.1870
  692SOL    HW2 2320   0.135   3.545   0.490 -0.4853 -0.1831  1.6710
  693SOL     OW 2321   0.366   2.611   0.941 -0.1947  0.1547  0.1188
  693SOL    HW1 2322   0.308   2.686   0.950 -0.0916  0.4055 -1.1335
  693SOL    HW2 2323   0.326   2.557   0.874  0.2208 -0.4391  0.3410
  694SOL     OW 2324   0.546   0.741   1.605 -0.2755 -0.9024 -0.0236
  694SOL    HW1 2325   0.613   0.806   1.583  1.0677 -1.8214  1.1656
  694SOL    HW2 2326   0.464   0.791   1.608  0.3003  0.2299 -1.6050
  695SOL     OW 2327   2.109   2.047   1.771 -0.5863  0.3167  0.6852
  695SOL    HW1 2328   2.072   2.048   1.683 -0.1308  0.2319  0.4926
  695SOL    HW2 2329   2.033   2.038   1.828 -0.9847  1.4073  0.3613
  696SOL     OW 2330   3.907   4.092   0.885 -0.8147  0.5165  0.5417
  696SOL    HW1 2331   3.943   4.005   0.897  0.5965  0.9209 -0.4230
  696SOL    HW2 2332   3.823   4.078   0.841 -0.5418 -0.3504  0.2807
  697SOL     OW 2333   3.915   0.514   1.577  0.1793 -0.1019  0.2786
  697SOL    HW1 2334   3.830   0.556   1.586  0.2649  0.0471  0.3941
  697SOL    HW2 2335   3.925   0.462   1.657  0.0175 -0.4459  0.0788
  698SOL     OW 2336   2.344   0.132   0.478 -0.1971 -0.0851 -0.7059
  698SOL    HW1 2337   2.381   0.066   0.419 -0.7278 -0.2572 -0.8515
  698SOL    HW2 2338   2.402   0.208   0.467  1.5837 -1.1261  0.9095
  699SOL     OW 2339   2.305   1.102   1.338  0.3307 -0.3520  0.4097
  699SOL    HW1 2340   2.254   1.173   1.378 -1.8132 -2.1429  1.0695
  699SOL    HW2 2341   2.342   1.141   1.259 -4.1100  0.6101 -1.5396
  700SOL     OW 2342   0.413   0.032   2.628 -0.2747 -0.0309 -0.2729
  700SOL    HW1 2343   0.408   0.082   2.709  1.6708  0.4933 -0.4374
  700SOL    HW2 2344   0.461   0.088   2.568 -0.9396 -0.7722 -1.5309
  701SOL     OW 2345   3.084   1.823   2.767  0.8470  0.4802  0.6958
  701SOL    HW1 2346   3.089   1.906   2.815  1.8123 -0.2330  1.8836
  701SOL    HW2 2347   3.045   1.762   2.829  0.7449 -0.1175  0.0553
  702SOL     OW 2348   3.245   4.304   1.256 -0.1785 -0.0965 -0.5476
  702SOL    HW1 2349   3.323   4.250   1.243 -0.3834 -0.1236 -1.8796
  702SOL    HW2 2350   3.254   4.339   1.344  1.5827  0.2623 -0.8307
  703SOL     OW 2351   0.297   2.904   0.110 -0.2015  0.0416  0.4229
  703SOL    HW1 2352   0.234   2.976   0.110 -0.0324  0.1961  0.0924
  703SOL    HW2 2353   0.304   2.877   0.201  0.5357  1.1524  0.7136
  704SOL     OW 2354   2.464   3.958   1.308  0.0076 -0.4775 -0.2162
  704SOL    HW1 2355   2.443   3.980   1.217 -1.5630 -3.8003 -0.8135
  704SOL    HW2 2356   2.447   4.039   1.356 -1.1612  0.8239 -2.6036
  705SOL     OW 2357   3.148   2.983   0.876  0.2772 -0.0225  0.0999
  705SOL    HW1 2358   3.179   3.074   0.875  0.0052  0.0664 -0.0922
  705SOL    HW2 2359   3.224   2.933   0.908  0.9635  0.0713 -1.2830
  706SOL     OW 2360   2.141   4.058   2.961 -0.1679 -0.1083 -0.0852
  706SOL    HW1 2361   2.122   3.972   2.923 -1.8031  0.3645 -0.4554
  706SOL    HW2 2362   2.100   4.054   3.048 -0.2305  0.2806 -0.0986
  707SOL     OW 2363   2.000   4.377   0.911  0.2586  0.2508  0.1960
  707SOL    HW1 2364   1.991   4.463   0.870 -0.5819  1.0743  2.0049
  707SOL    HW2 2365   1.916   4.362   0.954  0.8433 -0.9070  0.9885
  708SOL     OW 2366   3.873   2.125   3.051 -0.6439 -0.5844  0.1347
  708SOL    HW1 2367   3.957   2.169   3.039 -0.9900  0.3930  1.0514
  708SOL    HW2 2368   3.852   2.088   2.965 -0.2333  0.9322 -0.6580
  709SOL     OW 2369   2.786   0.599   1.734 -0.5551  0.0154 -0.4155
  709SOL    HW1 2370   2.713   0.628   1.680 -1.0050  1.2107  0.7776
  709SOL    HW2 2371   2.769   0.506   1.751  0.2295 -0.7527 -3.2508
  710SOL     OW 2372   2.223   3.203   1.924  0.1571  0.5020  0.0148
  710SOL    HW1 2373   2.146   3.174   1.973  0.1194  0.6585  0.0488
  710SOL    HW2 2374   2.290   3.137   1.944 -0.1354  0.0502 -0.4767
  711SOL     OW 2375   2.656   3.691   2.902 -0.3470 -0.3105 -0.2800
  711SOL    HW1 2376   2.613   3.718   2.983  0.4371 -0.3051  0.1404
  711SOL    HW2 2377   2.748   3.718   2.913  0.3225 -2.4886 -0.1284
  712SOL     OW 2378   2.593   1.059   0.222  0.3667  0.2354  0.3837
  712SOL    HW1 2379   2.616   1.111   0.299 -0.3723 -0.0611  0.8162
  712SOL    HW2 2380   2.500   1.039   0.234  0.1679  0.4572 -0.7487
  713SOL     OW 2381   0.537   2.162   2.141  0.3506 -0.0028  0.0656
  713SOL    HW1 2382   0.447   2.171   2.172  0.5240  1.9915  0.1272
  713SOL    HW2 2383   0.529   2.165   2.045  0.4165  1.3104  0.0845
  714SOL     OW 2384   1.752   3.174   2.477  0.0892 -0.1941  0.5823
  714SOL    HW1 2385   1.838   3.212   2.495  0.3889 -0.4360 -0.2722
  714SOL    HW2 2386   1.693   3.249   2.474  0.0229 -0.1443  2.4668
  715SOL     OW 2387   0.337   0.428   0.732  0.2580 -0.1863 -0.0065
  715SOL    HW1 2388   0.348   0.415   0.826  0.8727 -1.0536 -0.1895
  715SOL    HW2 2389   0.274   0.500   0.725 -0.1065 -0.3831  1.0629
  716SOL     OW 2390   2.037   0.532   0.563  0.2001  0.4676  0.2055
  716SOL    HW1 2391   1.951   0.493   0.573  0.5750 -0.3189  0.4183
  716SOL    HW2 2392   2.021   0.627   0.563 -0.8687  0.3169 -1.6843
  717SOL     OW 2393   0.395   4.135   2.733  0.4109 -0.0567  0.1545
  717SOL    HW1 2394   0.406   4.213   2.679 -3.7809  1.8685  1.6850
  717SOL    HW2 2395   0.338   4.078   2.682 -0.0768 -0.1649  0.8186
  718SOL     OW 2396   2.440   2.440   1.852 -0.0702 -0.4141 -0.3300
  718SOL    HW1 2397   2.489   2.458   1.932  0.5357 -1.7505 -0.3795
  718SOL    HW2 2398   2.449   2.520   1.800  1.1089 -0.2349  0.1285
  719SOL     OW 2399   1.822   4.142   1.466  1.1877  0.3563 -0.2621
  719SOL    HW1 2400   1.748   4.177   1.417  1.0968  0.3725 -0.1105
  719SOL    HW2 2401   1.886   4.213   1.467  1.3290  0.2404 -0.6552
  720SOL     OW 2402   4.118   3.076   2.345  0.3531 -0.0857  0.1240
  720SOL    HW1 2403   4.121   3.165   2.310 -1.5224 -0.5111 -1.2981
  720SOL    HW2 2404   4.167   3.024   2.283 -0.9027 -0.4489 -0.6055
  721SOL     OW 2405   0.490   0.226   2.455  0.0669 -0.2175 -0.0860
  721SOL    HW1 2406   0.506   0.317   2.480  0.9051 -0.7946  1.6730
  721SOL    HW2 2407   0.457   0.231   2.365 -1.1747  1.9014  0.4101
  722SOL     OW 2408   0.050   2.640   1.147 -0.5335 -0.2257  0.7891
  722SOL    HW1 2409   0.044   2.579   1.074 -2.9049 -0.2666  0.9280
  722SOL    HW2 2410   0.104   2.712   1.114 -1.1435 -0.4794 -0.8489
  723SOL     OW 2411   3.189   3.792   0.009 -0.4028 -0.4181  0.1288
  723SOL    HW1 2412   3.136   3.865  -0.022 -0.4075 -0.9090 -1.0470
  723SOL    HW2 2413   3.236   3.827   0.085 -0.7725  0.6535 -0.1239
  724SOL     OW 2414   2.585   3.505   0.369  0.7880  0.2353 -0.3878
  724SOL    HW1 2415   2.620   3.574   0.312  1.7333  0.8752  0.9163
  724SOL    HW2 2416   2.518   3.549   0.421  0.9530  0.0099  0.0128
  725SOL     OW 2417   1.846   2.777   0.163  0.3109 -0.1705 -0.0280
  725SOL    HW1 2418   1.793   2.856   0.173  1.0750  0.4409 -0.6820
  725SOL    HW2 2419   1.866   2.774   0.069  0.3499 -1.1055 -0.0001
  726SOL     OW 2420   0.842   1.786   0.292 -0.3522 -0.9157  0.4340
  726SOL    HW1 2421   0.808   1.766   0.380 -0.0293 -0.2991  0.7058
  726SOL    HW2 2422   0.907   1.855   0.306 -0.7108 -0.3949 -0.3498
  727SOL     OW 2423   2.391   2.161   1.857  0.4568 -0.2951 -0.3077
  727SOL    HW1 2424   2.423   2.251   1.869  1.7327 -0.8546  0.8402
  727SOL    HW2 2425   2.461   2.118   1.809  0.4165 -0.9848  0.2431
  728SOL     OW 2426   2.488   0.365   0.467 -0.1133 -0.3898 -0.1325
  728SOL    HW1 2427   2.499   0.458   0.487  0.5510 -0.0810 -1.7362
  728SOL    HW2 2428   2.464   0.364   0.374  0.2703 -1.8368 -0.2327
  729SOL     OW 2429   2.899   0.612   2.518 -0.3752  0.0791  0.1085
  729SOL    HW1 2430   2.882   0.526   2.480 -1.5786  1.0434 -1.6843
  729SOL    HW2 2431   2.841   0.617   2.594 -0.2190 -0.7107  0.2874
  730SOL     OW 2432   0.280   0.271   1.433 -0.3578 -0.1750  0.0947
  730SOL    HW1 2433   0.260   0.350   1.383 -1.1195 -0.8254 -0.6620
  730SOL    HW2 2434   0.370   0.284   1.463 -0.2063  0.6390 -0.6613
  731SOL     OW 2435   1.449   1.921   2.516  0.5444 -0.4478  0.4083
  731SOL    HW1 2436   1.392   1.844   2.510 -1.8781  1.2151  0.4967
  731SOL    HW2 2437   1.402   1.989   2.467  3.1716  0.6995 -0.7204
  732SOL     OW 2438   4.310   0.571   0.556 -0.3817 -0.0295 -0.3390
  732SOL    HW1 2439   4.312   0.500   0.491  0.2052 -0.0360 -0.3179
  732SOL    HW2 2440   4.336   0.529   0.638 -0.9308  0.0218 -0.1341
  733SOL     OW 2441   0.214   3.349   2.368 -0.0200 -0.5267  0.2994
  733SOL    HW1 2442   0.282   3.296   2.326 -0.0418  1.0963 -1.9861
  733SOL    HW2 2443   0.144   3.287   2.386  0.4943 -1.5567 -1.0091
  734SOL     OW 2444   3.509   1.507   1.893 -0.7725  0.0052  0.3989
  734SOL    HW1 2445   3.573   1.515   1.964 -2.0003  1.4507  1.4190
  734SOL    HW2 2446   3.561   1.512   1.813  0.4704  0.1317  1.1839
  735SOL     OW 2447   2.800   1.940   1.019  0.3163  0.7185  0.6010
  735SOL    HW1 2448   2.828   1.886   1.093  1.6059  0.1971 -0.2461
  735SOL    HW2 2449   2.715   1.903   0.995 -0.6513  1.5633  2.4441
  736SOL     OW 2450   0.604   2.572   2.358 -0.2096  0.0170  0.6373
  736SOL    HW1 2451   0.687   2.593   2.400 -1.0463  0.0004  2.3562
  736SOL    HW2 2452   0.537   2.591   2.424 -1.7250  1.5557 -1.2303
  737SOL     OW 2453   2.414   3.663   1.973  0.0774  0.5789  0.1269
  737SOL    HW1 2454   2.352   3.591   1.956  1.0303  0.3832 -3.3238
  737SOL    HW2 2455   2.422   3.666   2.068 -2.8868 -1.3680  0.5813
  738SOL     OW 2456   4.169   1.813   1.400 -0.5047  0.4870 -0.3674
  738SOL    HW1 2457   4.110   1.884   1.373 -1.3165 -0.2461 -0.6055
  738SOL    HW2 2458   4.175   1.821   1.495 -1.1315  0.4823 -0.3210
  739SOL     OW 2459   2.195   3.945   1.470 -0.0267  0.2197  0.1344
  739SOL    HW1 2460   2.191   3.908   1.558  0.6941 -1.1925 -0.4117
  739SOL    HW2 2461   2.216   4.038   1.485  0.6346 -0.1052  1.4310
  740SOL     OW 2462   1.829   0.933   0.262 -0.1366  0.0627 -0.0474
  740SOL    HW1 2463   1.843   0.865   0.196  0.8455  1.2325 -1.0968
  740SOL    HW2 2464   1.774   0.997   0.217  1.1708  1.2373 -0.0225
  741SOL     OW 2465   3.297   3.882   0.279  0.3095  0.0700 -0.2311
  741SOL    HW1 2466   3.357   3.946   0.240  0.6668  1.5383  2.5066
  741SOL    HW2 2467   3.341   3.853   0.358 -1.9293  0.1263  1.1394
  742SOL     OW 2468   2.659   2.367   1.491 -0.2493 -0.3271 -0.4755
  742SOL    HW1 2469   2.747   2.358   1.456  0.8400  1.3869  1.5802
  742SOL    HW2 2470   2.614   2.424   1.429  0.1027 -1.0872 -1.4578
  743SOL     OW 2471   1.717   3.469   2.011 -0.7936  0.0500  0.3985
  743SOL    HW1 2472   1.759   3.472   2.096 -0.4827  0.2711  0.2378
  743SOL    HW2 2473   1.779   3.423   1.954 -0.7769  0.3540  0.1679
  744SOL     OW 2474   1.025   4.031   1.215 -0.0558 -0.6554 -0.0021
  744SOL    HW1 2475   1.065   4.095   1.156 -1.6809  0.1246 -0.3289
  744SOL    HW2 2476   1.001   4.081   1.293 -0.6553 -1.0257  0.0567
  745SOL     OW 2477   2.906   0.739   0.682  0.2881 -0.3625 -0.0854
  745SOL    HW1 2478   2.820   0.758   0.718  0.5081  0.8713 -0.1479
  745SOL    HW2 2479   2.967   0.781   0.742  0.6759  1.3576 -1.5863
  746SOL     OW 2480   2.767   2.828   1.750 -0.2449  0.3152  0.5718
  746SOL    HW1 2481   2.791   2.902   1.694  0.9343 -0.6367 -0.2458
  746SOL    HW2 2482   2.674   2.814   1.734 -0.1483  0.7043 -0.3845
  747SOL     OW 2483   2.992   1.028   0.057  0.5222  0.2117  0.4623
  747SOL    HW1 2484   2.970   1.106   0.108 -2.5489 -0.0280 -0.3291
  747SOL    HW2 2485   2.955   1.045  -0.030  1.2879 -1.4421 -0.2323
  748SOL     OW 2486   1.158   2.885   1.295 -0.2059 -0.5425 -0.1973
  748SOL    HW1 2487   1.144   2.799   1.256 -0.1006 -2.0841  2.8887
  748SOL    HW2 2488   1.073   2.929   1.286  0.1300 -0.3031 -3.0846
  749SOL     OW 2489   1.157   1.945   0.793  0.7728  0.1315  0.0858
  749SOL    HW1 2490   1.177   2.037   0.777 -0.3153  0.3639  0.0274
  749SOL    HW2 2491   1.173   1.902   0.708 -0.3134  0.5561 -0.3539
  750SOL     OW 2492   3.164   0.292   2.211  0.0764 -0.5631 -0.2932
  750SOL    HW1 2493   3.250   0.255   2.192 -0.2913 -0.4940 -2.4144
  750SOL    HW2 2494   3.102   0.223   2.188 -0.4784 -0.2142  0.1183
  751SOL     OW 2495   2.193   1.191   0.895 -0.3912 -0.4121  0.2094
  751SOL    HW1 2496   2.146   1.163   0.973  2.6903 -0.1266  2.3202
  751SOL    HW2 2497   2.263   1.127   0.884  0.6299  0.8341 -0.9376
  752SOL     OW 2498   0.976   2.171   0.131 -0.1488  0.5480 -0.0792
  752SOL    HW1 2499   0.971   2.245   0.191  3.3066 -0.9247  2.4268
  752SOL    HW2 2500   0.885   2.149   0.111 -1.3773  3.0871  2.1106
  753SOL     OW 2501   3.652   0.591   2.979  0.3789 -0.1250 -0.0581
  753SOL    HW1 2502   3.665   0.579   3.074 -0.2271 -0.8650 -0.0617
  753SOL    HW2 2503   3.688   0.512   2.940  1.5317  0.6099 -0.5397
  754SOL     OW 2504   2.065   3.787   2.595 -0.5455  0.5008 -0.5528
  754SOL    HW1 2505   2.067   3.748   2.508 -1.0076 -0.2622 -0.2220
  754SOL    HW2 2506   2.151   3.829   2.604  0.2766 -1.1319 -0.5903
  755SOL     OW 2507   2.792   0.534   0.921  0.3320 -0.0771  0.3916
  755SOL    HW1 2508   2.788   0.439   0.914 -1.0879 -0.1768  2.0833
  755SOL    HW2 2509   2.759   0.554   1.008  1.2777  1.9401  0.3572
  756SOL     OW 2510   0.034   0.706   1.356 -0.6358 -0.1786  0.7148
  756SOL    HW1 2511   0.037   0.802   1.357 -0.5101  0.0543 -3.4961
  756SOL    HW2 2512  -0.056   0.686   1.328  0.1794 -1.0147 -1.5503
  757SOL     OW 2513   2.762   1.135   2.752  0.0728 -0.1645 -0.4484
  757SOL    HW1 2514   2.833   1.190   2.783 -0.2511  0.4755 -0.8196
  757SOL    HW2 2515   2.692   1.146   2.816  0.4284 -1.0948  0.1263
  758SOL     OW 2516   1.790   0.623   1.535  0.1631  0.2110 -0.5972
  758SOL    HW1 2517   1.704   0.640   1.573  0.2219  1.9558 -1.1750
  758SOL    HW2 2518   1.774   0.614   1.441  0.3528 -1.5795 -0.4843
  759SOL     OW 2519   2.573   0.375   1.686  0.1879 -0.0613 -0.4239
  759SOL    HW1 2520   2.486   0.399   1.656  0.1339  0.6836  0.2968
  759SOL    HW2 2521   2.618   0.344   1.607 -0.2323  0.9870 -1.1007
  760SOL     OW 2522   3.983   3.228   3.023 -0.2426 -0.2804  0.0347
  760SOL    HW1 2523   3.987   3.140   3.060 -0.9202 -0.1030  0.5428
  760SOL    HW2 2524   4.053   3.276   3.069 -0.7178 -0.2107  0.7091
  761SOL     OW 2525   3.160   3.860   2.966  0.3479  0.2808  0.3007
  761SOL    HW1 2526   3.187   3.948   2.989 -0.3881  1.5552 -3.1195
  761SOL    HW2 2527   3.213   3.837   2.890  0.1451 -2.0778  0.7665
  762SOL     OW 2528   0.924   3.629   2.001 -0.3045  0.1840 -0.2842
  762SOL    HW1 2529   1.004   3.681   2.010 -0.1862 -0.2121  1.3474
  762SOL    HW2 2530   0.853   3.692   2.001 -0.0675  0.4528 -0.0809
  763SOL     OW 2531   4.144   1.983   0.479  0.7717  0.1809 -0.3973
  763SOL    HW1 2532   4.193   1.920   0.532 -0.3892 -0.3455  0.0865
  763SOL    HW2 2533   4.141   2.062   0.534  1.5479  0.4023 -0.6674
  764SOL     OW 2534   2.697   2.226   2.015 -0.0844 -0.0351  0.3304
  764SOL    HW1 2535   2.742   2.291   2.069 -2.0913  1.5691  0.1794
  764SOL    HW2 2536   2.710   2.255   1.925 -1.1217  0.2780  0.2692
  765SOL     OW 2537   1.111   2.207   3.084 -0.1449  0.5094  0.0018
  765SOL    HW1 2538   1.046   2.181   3.149 -1.4920 -0.0785 -1.5079
  765SOL    HW2 2539   1.090   2.156   3.006  1.9174  0.5755 -0.6831
  766SOL     OW 2540   2.801   1.103   1.637 -0.4800  0.4766 -0.1696
  766SOL    HW1 2541   2.886   1.104   1.681 -0.7927  2.1129  0.4531
  766SOL    HW2 2542   2.804   1.024   1.582  1.2978  0.3144  0.0884
  767SOL     OW 2543   0.805   4.176   0.603  0.4187 -0.1147  0.3722
  767SOL    HW1 2544   0.854   4.096   0.583  1.6408  1.2546 -2.4781
  767SOL    HW2 2545   0.832   4.198   0.693 -0.2445 -3.0099  1.4142
  768SOL     OW 2546   2.049   3.283   0.523  0.0065 -0.2135 -0.0432
  768SOL    HW1 2547   2.019   3.199   0.559 -0.5829  0.0417  0.0609
  768SOL    HW2 2548   2.047   3.270   0.428 -0.0413 -0.3305 -0.0266
  769SOL     OW 2549   2.512   2.812   2.649  0.2213 -0.2307 -0.4951
  769SOL    HW1 2550   2.421   2.781   2.655  0.6054 -1.7182 -1.7290
  769SOL    HW2 2551   2.561   2.751   2.703  0.2897  1.7346  1.7876
  770SOL     OW 2552   1.222   0.245   2.067  0.0825 -0.2813  0.0436
  770SOL    HW1 2553   1.169   0.176   2.029  2.3191 -2.2620  0.3143
  770SOL    HW2 2554   1.308   0.206   2.079  1.2365  2.3117  1.0058
  771SOL     OW 2555   2.233   0.937   0.083 -0.2810  0.0256 -0.0412
  771SOL    HW1 2556   2.223   0.990   0.162 -1.2679 -0.4145  0.1472
  771SOL    HW2 2557   2.326   0.943   0.062  0.0514 -0.0615  1.3100
  772SOL     OW 2558   2.415   3.208   1.228  0.0281  0.1092  0.5349
  772SOL    HW1 2559   2.401   3.284   1.171  2.2519 -0.6971 -1.2395
  772SOL    HW2 2560   2.329   3.190   1.266 -1.5708  0.7916 -2.4757
  773SOL     OW 2561   0.041   4.115   1.221 -0.1756 -0.1708  0.3976
  773SOL    HW1 2562  -0.022   4.045   1.237  1.1252 -1.3860  0.3144
  773SOL    HW2 2563   0.018   4.182   1.285 -1.6310 -0.5151  0.2748
  774SOL     OW 2564   2.801   0.026   2.670 -0.1587 -0.1731 -0.4954
  774SOL    HW1 2565   2.751   0.072   2.738  0.3225  0.1184 -0.3323
  774SOL    HW2 2566   2.761  -0.061   2.666 -0.1185 -0.2364  0.2539
  775SOL     OW 2567   3.164   4.152   0.348 -0.2426  0.1893  0.4635
  775SOL    HW1 2568   3.108   4.082   0.381  0.5487  0.1469  1.8064
  775SOL    HW2 2569   3.217   4.111   0.280  0.0427 -0.4718  1.0750
  776SOL     OW 2570   1.525   0.701   1.291 -0.0310  0.2902 -0.0569
  776SOL    HW1 2571   1.505   0.675   1.381  0.9470  1.2347  0.4484
  776SOL    HW2 2572   1.470   0.777   1.276 -0.5237 -0.1305 -0.4291
  777SOL     OW 2573   3.894   1.762   0.125  0.0193  0.1165 -0.5229
  777SOL    HW1 2574   3.806   1.725   0.119  0.9972 -2.5061 -0.0395
  777SOL    HW2 2575   3.937   1.736   0.044  0.2091  1.9436 -1.0579
  778SOL     OW 2576   0.372   3.007   2.673  0.0651 -0.6478  0.0335
  778SOL    HW1 2577   0.277   3.018   2.671  0.1747  0.7711 -2.4884
  778SOL    HW2 2578   0.407   3.096   2.667  1.4417 -1.2238 -1.8662
  779SOL     OW 2579   1.907   3.769   3.077  0.2869  0.3054 -0.3405
  779SOL    HW1 2580   1.939   3.745   3.163  0.4589 -1.9425 -0.9761
  779SOL    HW2 2581   1.985   3.791   3.027  0.2563  0.7753 -0.1932
  780SOL     OW 2582   2.996   2.121   1.604  0.9056 -0.5203  0.3094
  780SOL    HW1 2583   3.001   2.193   1.667  2.0653 -0.1961 -0.1194
  780SOL    HW2 2584   3.086   2.088   1.599  0.7016 -0.9620 -0.6962
  781SOL     OW 2585   4.150   0.124   1.956 -0.2851  0.0146  0.0339
  781SOL    HW1 2586   4.131   0.030   1.957  2.0514 -0.5159  1.3869
  781SOL    HW2 2587   4.243   0.130   1.979 -0.7671  2.7432  1.6753
  782SOL     OW 2588   1.388   3.452   2.376 -0.7707  0.2689 -0.2240
  782SOL    HW1 2589   1.386   3.497   2.291 -2.1126 -0.2921 -0.5232
  782SOL    HW2 2590   1.362   3.362   2.355  0.6026 -0.3201  0.5495
  783SOL     OW 2591   1.700   0.240   1.783 -0.1898 -0.2111 -0.4256
  783SOL    HW1 2592   1.784   0.211   1.818  2.3434  5.0963 -1.1154
  783SOL    HW2 2593   1.649   0.264   1.860  0.8218  0.8568 -0.0754
  784SOL     OW 2594   0.693   0.766   2.292  0.3064  0.3203  0.2773
  784SOL    HW1 2595   0.754   0.754   2.364  2.2964  2.8549 -0.8382
  784SOL    HW2 2596   0.735   0.723   2.217 -1.1674 -1.2200  0.2514
  785SOL     OW 2597   1.379   2.927   2.537  0.1407  0.5065 -0.0901
  785SOL    HW1 2598   1.470   2.923   2.566  0.7021  1.2318 -1.6554
  785SOL    HW2 2599   1.343   3.005   2.580  0.0650 -0.0848  0.9635
  786SOL     OW 2600   3.587  -0.010   1.191 -0.3117  0.1997 -0.5567
  786SOL    HW1 2601   3.573   0.065   1.249 -0.0753  0.3592 -0.7019
  786SOL    HW2 2602   3.575   0.026   1.103 -0.7709 -0.0628 -0.6025
  787SOL     OW 2603   0.758   1.696   1.858 -0.3987  0.6134 -0.2973
  787SOL    HW1 2604   0.690   1.630   1.842  0.9038 -0.5333 -1.3414
  787SOL    HW2 2605   0.840   1.646   1.858  0.4410  1.9070  1.3013
  788SOL     OW 2606   3.334   3.420   2.349 -0.3649  0.6767 -0.1119
  788SOL    HW1 2607   3.348   3.501   2.301  0.3120  1.1981  0.9421
  788SOL    HW2 2608   3.418   3.374   2.344 -0.0651  1.0617  1.1577
  789SOL     OW 2609   3.343   1.665   0.557 -0.3658 -0.2758 -0.0971
  789SOL    HW1 2610   3.373   1.756   0.552  1.6122 -0.9554 -1.4889
  789SOL    HW2 2611   3.279   1.665   0.628 -2.1398  2.6652 -1.4809
  790SOL     OW 2612   0.538  -0.010   1.917  0.1763  0.2420  0.5347
  790SOL    HW1 2613   0.501   0.057   1.859 -1.0568 -1.2636 -0.4897
  790SOL    HW2 2614   0.464  -0.040   1.969  0.4695 -1.0394  0.2462
  791SOL     OW 2615   4.256   3.893   0.616  0.1704 -0.4545  0.2881
  791SOL    HW1 2616   4.182   3.886   0.556  0.8242  2.0381 -0.9532
  791SOL    HW2 2617   4.332   3.865   0.564  0.4454 -0.6155  0.7633
  792SOL     OW 2618   2.092   3.803   2.882  0.4766  0.0071  0.3538
  792SOL    HW1 2619   2.049   3.802   2.797 -0.7102 -0.0184  0.9283
  792SOL    HW2 2620   2.163   3.740   2.874  0.8561  0.5653 -0.8399
  793SOL     OW 2621   4.207   3.758   0.857  0.0215  0.2592 -0.2055
  793SOL    HW1 2622   4.240   3.786   0.771  0.7144 -0.6788 -0.2708
  793SOL    HW2 2623   4.113   3.751   0.845 -0.0053  1.1547 -0.5837
  794SOL     OW 2624   0.525   3.834   1.797  0.3562 -0.5545  0.1811
  794SOL    HW1 2625   0.566   3.906   1.750 -0.2390 -0.7537 -0.6604
  794SOL    HW2 2626   0.532   3.759   1.738 -1.9016 -0.4202 -0.3681
  795SOL     OW 2627   2.254   1.044   2.191  0.0791 -0.2885 -0.0993
  795SOL    HW1 2628   2.293   1.006   2.112 -1.3675  2.1463 -2.1340
  795SOL    HW2 2629   2.303   1.004   2.263  1.6404 -2.4528 -2.1938
  796SOL     OW 2630   2.523   0.662   2.561  0.4776 -0.6226 -0.0224
  796SOL    HW1 2631   2.561   0.745   2.534 -0.1232 -0.3475 -0.0432
  796SOL    HW2 2632   2.579   0.631   2.632  0.9023 -0.3715 -0.2493
  797SOL     OW 2633   1.324   1.358   1.098 -1.0227  0.6015  0.2575
  797SOL    HW1 2634   1.353   1.417   1.169 -0.7550  1.0877 -0.2465
  797SOL    HW2 2635   1.388   1.371   1.029 -1.6357  0.6010 -0.3208
  798SOL     OW 2636   0.386   3.268   2.584  0.4338 -0.0273 -0.1261
  798SOL    HW1 2637   0.472   3.307   2.569 -0.2062  1.3294 -0.5095
  798SOL    HW2 2638   0.332   3.302   2.512 -0.5418 -0.4280  0.3970
  799SOL     OW 2639   3.032   1.641   1.393 -0.1458 -0.2244  0.1094
  799SOL    HW1 2640   2.957   1.619   1.448 -0.1527  1.4036  0.8140
  799SOL    HW2 2641   3.105   1.593   1.432 -1.0134 -3.1220 -1.5275
  800SOL     OW 2642   1.455   2.483   0.051  0.1324 -0.1324 -0.0423
  800SOL    HW1 2643   1.456   2.491  -0.044 -1.9885 -0.6000 -0.1387
  800SOL    HW2 2644   1.477   2.570   0.083 -0.9875  0.5183 -0.9886
  801SOL     OW 2645   0.665   1.390   1.528  0.2390  0.1161  0.1066
  801SOL    HW1 2646   0.745   1.366   1.576  0.3519  1.6155  0.7320
  801SOL    HW2 2647   0.696   1.421   1.443  0.5287  2.2618  0.9318
  802SOL     OW 2648   3.474   0.991   2.246 -0.5324 -0.2266  0.6406
  802SOL    HW1 2649   3.491   1.053   2.175  1.6872 -2.1138 -0.6257
  802SOL    HW2 2650   3.405   0.934   2.212  0.1308 -0.7767  0.1786
  803SOL     OW 2651   3.348   2.327   1.520 -0.1621 -0.1474 -0.2649
  803SOL    HW1 2652   3.441   2.344   1.508 -0.1994  0.2108 -0.0643
  803SOL    HW2 2653   3.345   2.261   1.590 -0.0471 -0.4476 -0.5395
  804SOL     OW 2654   2.973   2.427   2.997 -0.3309  0.4304  0.3240
  804SOL    HW1 2655   2.946   2.355   2.940  0.3854  1.3282 -1.2090
  804SOL    HW2 2656   2.974   2.389   3.085  1.1103 -1.7487 -0.5608
  805SOL     OW 2657   2.297   3.988   0.071 -0.3471 -0.1415  0.0122
  805SOL    HW1 2658   2.273   3.913   0.126  0.0332 -0.1395  0.1811
  805SOL    HW2 2659   2.364   4.034   0.122  0.2160 -0.2959 -0.5781
  806SOL     OW 2660   3.935   2.174   0.760 -0.3637  0.0384  0.4650
  806SOL    HW1 2661   4.014   2.195   0.811  0.3894 -2.5638  0.5417
  806SOL    HW2 2662   3.960   2.193   0.669  0.8496 -1.7872  0.3506
  807SOL     OW 2663   3.492   3.127   0.160 -0.4988 -0.7558 -0.1820
  807SOL    HW1 2664   3.566   3.163   0.209 -2.6522  2.1072  1.2717
  807SOL    HW2 2665   3.521   3.130   0.068  0.9946  0.8638  0.2697
  808SOL     OW 2666   3.017   0.445   0.690 -0.1565 -0.0631  0.0112
  808SOL    HW1 2667   2.935   0.478   0.726 -0.9164 -0.4176 -1.3444
  808SOL    HW2 2668   3.001   0.352   0.675  0.7115 -0.2699  0.2948
  809SOL     OW 2669   1.339   1.999   0.457 -0.1519  0.1151  0.4668
  809SOL    HW1 2670   1.393   2.051   0.516 -1.4432  2.4206 -0.2697
  809SOL    HW2 2671   1.310   2.060   0.390 -0.6472 -1.8989 -1.2585
  810SOL     OW 2672   0.213   1.063   2.973 -0.4484  0.2726  0.4626
  810SOL    HW1 2673   0.220   1.102   3.060 -2.0363 -0.0327  0.7493
  810SOL    HW2 2674   0.144   1.113   2.930  0.0076  0.1184 -0.4771
  811SOL     OW 2675   1.574   0.236   0.589 -0.7533  0.0255  0.2900
  811SOL    HW1 2676   1.599   0.312   0.641  0.3284 -0.9789  1.2908
  811SOL    HW2 2677   1.497   0.265   0.540  0.0467  1.9680  0.1135
  812SOL     OW 2678   3.054   1.857   0.534 -0.7340  0.1384 -0.1685
  812SOL    HW1 2679   3.115   1.827   0.602 -0.0989 -0.1918 -0.8765
  812SOL    HW2 2680   3.108   1.869   0.457 -1.6029 -0.3090 -0.8616
  813SOL     OW 2681   1.022   0.436   1.740 -0.1734  0.4860 -0.1973
  813SOL    HW1 2682   0.964   0.363   1.762 -0.0587  0.3748 -0.2666
  813SOL    HW2 2683   1.107   0.410   1.773 -0.0223  0.3656 -0.6771
  814SOL     OW 2684   2.222   2.849   0.964  0.1874  0.6403  0.3201
  814SOL    HW1 2685   2.210   2.772   1.019 -1.4905  0.2946 -0.4556
  814SOL    HW2 2686   2.305   2.887   0.993  1.0325 -1.4112  0.7653
  815SOL     OW 2687   4.351   4.267   1.931  0.6070 -0.1981  0.2717
  815SOL    HW1 2688   4.309   4.181   1.938 -0.8413  0.3962 -0.6326
  815SOL    HW2 2689   4.397   4.265   1.847  0.4214 -0.0372  0.1643
  816SOL     OW 2690   1.939   0.513   2.645  0.8449 -0.1746 -0.4409
  816SOL    HW1 2691   1.981   0.574   2.706 -0.4579 -0.4064  0.7122
  816SOL    HW2 2692   2.006   0.498   2.577  2.7360 -0.7429  1.4433
  817SOL     OW 2693   4.387   2.844   0.570 -0.3773  0.2651  0.0884
  817SOL    HW1 2694   4.309   2.862   0.518  0.6916  1.0016 -1.3467
  817SOL    HW2 2695   4.381   2.903   0.644 -1.2454  0.2214  0.0579
  818SOL     OW 2696   4.400   3.558   2.687  0.7483 -0.0530  0.7593
  818SOL    HW1 2697   4.440   3.569   2.774 -1.2790 -0.5736  1.8252
  818SOL    HW2 2698   4.310   3.533   2.706  0.0685  0.4859 -1.5333
  819SOL     OW 2699   0.178   2.702   2.734  0.1871  0.2519  0.6304
  819SOL    HW1 2700   0.244   2.667   2.674 -0.1958  1.2809 -0.4276
  819SOL    HW2 2701   0.162   2.791   2.703 -2.4631 -0.2995  0.1582
  820SOL     OW 2702   1.713   1.501   2.776 -0.1308  0.0772 -0.0899
  820SOL    HW1 2703   1.661   1.539   2.705  0.9461 -1.4738 -1.8017
  820SOL    HW2 2704   1.698   1.407   2.768  0.9982 -0.2136  0.9508
  821SOL     OW 2705   3.475   1.705   3.013 -0.1824 -0.1025  0.3311
  821SOL    HW1 2706   3.442   1.627   2.968 -1.5404  0.0725  0.9575
  821SOL    HW2 2707   3.451   1.777   2.955 -1.3119  0.0587  0.9521
  822SOL     OW 2708   0.663   1.303   0.081 -0.0501  0.4328  0.3587
  822SOL    HW1 2709   0.720   1.235   0.115 -1.2509 -0.8642 -0.1225
  822SOL    HW2 2710   0.715   1.383   0.085  1.5448 -0.5832  0.5444
  823SOL     OW 2711   3.723   0.971   1.985 -0.4988  0.6831 -0.1599
  823SOL    HW1 2712   3.636   1.008   2.000 -1.8219 -2.5319  0.7089
  823SOL    HW2 2713   3.750   0.937   2.070  0.4422 -0.7010 -0.9899
  824SOL     OW 2714   0.942   4.190   1.407 -0.1831 -0.0513  0.1467
  824SOL    HW1 2715   1.015   4.202   1.467  0.3476  2.2522 -0.8209
  824SOL    HW2 2716   0.898   4.276   1.406 -2.7852 -1.2860  0.5141
  825SOL     OW 2717   3.929   0.971   1.618  0.5916  0.1670  0.2697
  825SOL    HW1 2718   3.935   1.063   1.643  2.0990 -0.0969  0.9928
  825SOL    HW2 2719   3.919   0.973   1.523  1.8300  1.0684  0.1349
  826SOL     OW 2720   3.349   2.592   0.831  0.6595 -0.5555 -0.1417
  826SOL    HW1 2721   3.357   2.646   0.910  3.9469 -0.3363 -0.5064
  826SOL    HW2 2722   3.361   2.653   0.759  1.8110 -1.3453 -0.6468
  827SOL     OW 2723   3.999   1.715   3.060  0.2176 -0.3426  0.2576
  827SOL    HW1 2724   3.932   1.768   3.103  0.4243 -0.1334  0.3282
  827SOL    HW2 2725   4.081   1.744   3.100  0.3657 -0.4843  0.0585
  828SOL     OW 2726   2.943   2.507   2.414  0.3504 -0.2420 -0.0925
  828SOL    HW1 2727   3.037   2.507   2.393  0.2758  1.1484 -0.5530
  828SOL    HW2 2728   2.935   2.569   2.487 -0.3949  0.8849 -1.0944
  829SOL     OW 2729   4.085   0.132   0.893 -0.2603 -0.0180 -0.1398
  829SOL    HW1 2730   4.051   0.058   0.843 -0.6462 -0.7775  1.1982
  829SOL    HW2 2731   4.104   0.096   0.979  1.8426  0.9132 -0.1527
  830SOL     OW 2732   3.328   0.665   2.952  0.7944  0.2148 -0.2023
  830SOL    HW1 2733   3.351   0.681   3.043  0.6167  1.1842 -0.3096
  830SOL    HW2 2734   3.407   0.687   2.902  0.4402  1.1485 -0.3807
  831SOL     OW 2735   4.190   1.692   1.812 -0.1551 -0.8067 -0.1707
  831SOL    HW1 2736   4.168   1.770   1.762 -0.3629  0.6252  1.9881
  831SOL    HW2 2737   4.279   1.670   1.786  0.4028  0.9928  0.1222
  832SOL     OW 2738   3.507   0.074   0.573 -0.0887 -0.7750 -0.1344
  832SOL    HW1 2739   3.595   0.066   0.611 -0.4186  1.0204  1.0804
  832SOL    HW2 2740   3.462   0.137   0.628 -1.0692  0.8950 -2.6621
  833SOL     OW 2741   1.956   2.904   2.575 -0.1193 -0.0544 -0.3163
  833SOL    HW1 2742   1.923   2.896   2.665 -0.8897 -0.8358 -0.6502
  833SOL    HW2 2743   1.877   2.901   2.520  0.4580 -1.4869 -1.1136
  834SOL     OW 2744   4.030   0.015   2.544  0.2072 -0.0136  0.0235
  834SOL    HW1 2745   3.960  -0.032   2.590 -0.5746  2.3998  1.4874
  834SOL    HW2 2746   3.988   0.095   2.513  2.0846  0.9914 -0.0452
  835SOL     OW 2747   0.126   0.873   2.251  0.1314  0.0739  0.0923
  835SOL    HW1 2748   0.220   0.886   2.261  0.0481  2.3963 -1.3842
  835SOL    HW2 2749   0.097   0.840   2.337  1.8144  2.4096  1.6778
  836SOL     OW 2750   1.713   1.289   0.351  0.3063 -0.0232  0.0300
  836SOL    HW1 2751   1.700   1.268   0.443 -0.2310 -1.4982 -0.3385
  836SOL    HW2 2752   1.792   1.343   0.349  0.5408 -0.2857  1.3179
  837SOL     OW 2753   0.196   1.064   1.459 -0.0558 -0.1451 -0.5323
  837SOL    HW1 2754   0.134   1.067   1.532 -0.2864 -1.2301 -0.6641
  837SOL    HW2 2755   0.158   1.123   1.393 -0.8010 -0.5791 -0.4977
  838SOL     OW 2756   1.537   3.473   0.410 -0.1651 -0.6821 -0.3209
  838SOL    HW1 2757   1.462   3.529   0.431  0.6413  0.9101 -1.4440
  838SOL    HW2 2758   1.568   3.442   0.495 -0.2817  1.1245  0.4271
  839SOL     OW 2759   0.369   0.787   0.121  0.0500 -0.1277 -0.2540
  839SOL    HW1 2760   0.414   0.746   0.047 -0.1535  0.1987 -0.5666
  839SOL    HW2 2761   0.439   0.814   0.180  0.3492  1.1237 -1.1240
  840SOL     OW 2762   1.247   3.718   1.185  0.0634  0.2149 -0.0131
  840SOL    HW1 2763   1.260   3.768   1.266  0.6908  0.9234 -0.5421
  840SOL    HW2 2764   1.160   3.743   1.156 -0.9318 -1.4246  1.3792
  841SOL     OW 2765   2.258   0.398   2.798 -0.2074 -0.0466 -0.0567
  841SOL    HW1 2766   2.282   0.306   2.785 -0.2118 -0.3859  1.9813
  841SOL    HW2 2767   2.179   0.395   2.852  1.2479  1.0932  2.3198
  842SOL     OW 2768   3.603   2.013   1.524 -0.3607 -0.6420  0.2234
  842SOL    HW1 2769   3.540   1.973   1.465 -0.7137 -0.3412  0.3885
  842SOL    HW2 2770   3.659   2.066   1.467 -0.4917 -0.6167  0.1172
  843SOL     OW 2771   0.512   0.582   2.658 -0.1704  0.1296 -0.0027
  843SOL    HW1 2772   0.491   0.494   2.688  3.0443 -1.3869 -1.7081
  843SOL    HW2 2773   0.498   0.579   2.563  1.2639  0.9699 -0.2739
  844SOL     OW 2774   1.488   2.400   1.240 -0.2971  0.3497 -0.3805
  844SOL    HW1 2775   1.413   2.435   1.288 -0.3790 -1.2010  0.6783
  844SOL    HW2 2776   1.450   2.340   1.177 -0.0565  1.0444 -1.2075
  845SOL     OW 2777   2.023   2.678   0.364  0.5733 -0.3351 -0.1061
  845SOL    HW1 2778   2.060   2.755   0.406 -0.9657  0.3730  0.0107
  845SOL    HW2 2779   1.933   2.702   0.344 -0.6474 -2.7880  1.8346
  846SOL     OW 2780   3.697   0.062   0.935 -0.3209  0.6319  0.7174
  846SOL    HW1 2781   3.755   0.121   0.983 -0.6494  1.2465  0.3629
  846SOL    HW2 2782   3.722   0.073   0.843 -1.0434  0.9585  0.5519
  847SOL     OW 2783   1.251   2.506   1.357  0.1227 -0.0003  0.1040
  847SOL    HW1 2784   1.171   2.508   1.409  0.4975  2.0380  0.6810
  847SOL    HW2 2785   1.317   2.550   1.411  1.4818 -1.0625 -0.6204
  848SOL     OW 2786   1.661   0.700   0.866 -0.2598 -0.0660 -0.5324
  848SOL    HW1 2787   1.661   0.788   0.903 -1.1320  0.0727 -0.8262
  848SOL    HW2 2788   1.582   0.698   0.811 -0.0406 -0.9044 -0.8269
  849SOL     OW 2789   0.815   1.024   1.383  0.6057  0.1262 -0.7179
  849SOL    HW1 2790   0.778   1.048   1.297  0.7197 -1.8920 -1.3714
  849SOL    HW2 2791   0.835   0.931   1.375  2.9982  0.4602  0.6565
  850SOL     OW 2792   1.335   2.687   2.230 -0.1725  0.5141  0.2232
  850SOL    HW1 2793   1.328   2.777   2.261  0.0384  0.4626  0.4174
  850SOL    HW2 2794   1.425   2.661   2.248  0.6257  1.1782 -2.3273
  851SOL     OW 2795   2.064   2.861   3.100 -0.8778  0.2881  0.1977
  851SOL    HW1 2796   1.995   2.888   3.161 -1.3690  1.8287 -0.9835
  851SOL    HW2 2797   2.079   2.938   3.045 -0.0704 -0.8762 -1.2854
  852SOL     OW 2798   0.556   1.621   2.825 -0.1568 -0.5101 -0.0429
  852SOL    HW1 2799   0.611   1.568   2.767  0.7257 -0.8033  1.0310
  852SOL    HW2 2800   0.536   1.562   2.898  0.5216  0.5069  0.9891
  853SOL     OW 2801   4.123   2.327   2.598 -0.4781  0.7792 -0.1587
  853SOL    HW1 2802   4.066   2.293   2.529 -2.6210  2.7865  0.4892
  853SOL    HW2 2803   4.202   2.273   2.593 -2.2876 -1.9563 -1.3252
  854SOL     OW 2804   2.140   1.361   1.374 -0.0101  0.7602  0.5592
  854SOL    HW1 2805   2.061   1.382   1.325 -0.0087  3.7740  1.6458
  854SOL    HW2 2806   2.115   1.370   1.466  1.1465 -0.1071  0.9887
  855SOL     OW 2807   3.473   1.298   2.588 -0.0014 -0.3100 -0.0543
  855SOL    HW1 2808   3.561   1.317   2.620  0.6368 -1.8068 -0.8368
  855SOL    HW2 2809   3.426   1.265   2.665  0.3829 -0.3315  0.1728
  856SOL     OW 2810   4.125   0.290   0.454 -0.4557  0.4384 -0.1059
  856SOL    HW1 2811   4.174   0.209   0.444 -0.2787  0.5534 -0.1815
  856SOL    HW2 2812   4.131   0.332   0.368  2.1778  2.0652  0.7566
  857SOL     OW 2813   1.337   3.328   0.222 -0.0722 -0.3533 -0.2509
  857SOL    HW1 2814   1.380   3.396   0.274 -2.0399  1.4815 -0.8705
  857SOL    HW2 2815   1.351   3.247   0.271  1.6933  0.5940  0.9183
  858SOL     OW 2816   3.578   0.415   1.708  0.2999  0.1809  0.1350
  858SOL    HW1 2817   3.652   0.355   1.715  0.0616 -0.2679 -1.0022
  858SOL    HW2 2818   3.615   0.495   1.670  0.3251  0.2030  0.2056
  859SOL     OW 2819   4.340   4.420   2.164  0.6794  0.0067  0.2548
  859SOL    HW1 2820   4.268   4.392   2.220  1.1270 -0.5604  0.5579
  859SOL    HW2 2821   4.354   4.347   2.103  1.5383 -0.2556  0.7436
  860SOL     OW 2822   0.904   1.727   1.477 -0.0352  0.3508 -0.4246
  860SOL    HW1 2823   0.915   1.788   1.404  0.3569  0.3505 -0.3654
  860SOL    HW2 2824   0.842   1.662   1.444  1.1149 -0.3673 -1.2167
  861SOL     OW 2825   2.031   4.379   2.735  0.1372  0.2494 -0.1814
  861SOL    HW1 2826   1.982   4.324   2.674  0.3282  1.9075 -1.9348
  861SOL    HW2 2827   2.111   4.401   2.688 -0.1523  2.3969  0.2498
  862SOL     OW 2828   1.898   2.493   1.814  0.3191 -0.1211 -0.3100
  862SOL    HW1 2829   1.976   2.480   1.869  0.7081  0.3888 -0.7262
  862SOL    HW2 2830   1.886   2.588   1.812  0.2796 -0.1377 -1.0581
  863SOL     OW 2831   2.163   3.165   1.369  0.4088 -0.7873 -0.3606
  863SOL    HW1 2832   2.164   3.172   1.465  1.6150  2.0267 -0.4800
  863SOL    HW2 2833   2.073   3.186   1.345 -0.2339 -2.7192  0.1305
  864SOL     OW 2834   1.259   0.937   1.969  0.5482 -0.3313  0.3906
  864SOL    HW1 2835   1.163   0.938   1.975  0.4883 -2.3481  0.2656
  864SOL    HW2 2836   1.277   0.932   1.875  0.7339 -1.3503  0.4758
  865SOL     OW 2837   0.838   0.784   0.752 -0.3023 -0.2422  0.1334
  865SOL    HW1 2838   0.877   0.871   0.742  1.3313 -1.0857 -1.3807
  865SOL    HW2 2839   0.754   0.801   0.795 -0.0765  2.0787 -0.1727
  866SOL     OW 2840   2.320   0.472   1.601 -0.0618  0.6884  0.3859
  866SOL    HW1 2841   2.251   0.408   1.579  0.4404  0.5776 -1.0236
  866SOL    HW2 2842   2.273   0.554   1.614 -0.5063  0.5715 -0.3570
  867SOL     OW 2843   1.694   3.788   1.612  0.2950 -0.1176  0.0898
  867SOL    HW1 2844   1.782   3.824   1.604  0.2725 -0.2698 -0.8517
  867SOL    HW2 2845   1.708   3.694   1.621  0.2303 -0.1277  0.0822
  868SOL     OW 2846   0.204   4.365   0.622  0.1711  0.3575 -0.0891
  868SOL    HW1 2847   0.118   4.369   0.664  0.0394  1.6920 -0.4583
  868SOL    HW2 2848   0.235   4.455   0.620  1.6167 -0.1111  0.0862
  869SOL     OW 2849   1.403   3.015   1.271  0.7711  0.2274  0.6655
  869SOL    HW1 2850   1.313   2.983   1.276  0.1952  1.6501 -0.0812
  869SOL    HW2 2851   1.456   2.936   1.266 -0.5099 -0.6307  0.0180
  870SOL     OW 2852   0.383   1.333   1.207  0.1033  0.2943  0.6273
  870SOL    HW1 2853   0.340   1.411   1.242  1.1088 -0.4335  3.7142
  870SOL    HW2 2854   0.427   1.364   1.128 -2.6607  1.9408 -0.4200
  871SOL     OW 2855   4.234   3.653   1.975 -0.1092  0.3215  0.6448
  871SOL    HW1 2856   4.285   3.727   2.005 -1.7263  1.0379  1.7318
  871SOL    HW2 2857   4.296   3.601   1.923  0.7959  3.0077 -1.1919
  872SOL     OW 2858   3.953   2.667   2.628  0.3132  0.2184 -0.5716
  872SOL    HW1 2859   3.891   2.596   2.610  0.6223 -0.1643 -0.1630
  872SOL    HW2 2860   3.975   2.702   2.542  1.7086 -1.5392 -1.0000
  873SOL     OW 2861   0.809   3.159   2.356 -0.0708  0.0920  0.3649
  873SOL    HW1 2862   0.826   3.218   2.429  0.0272  0.0290  0.3932
  873SOL    HW2 2863   0.890   3.161   2.305 -0.0818  0.0125  0.3451
  874SOL     OW 2864   2.726   2.998   2.622 -0.5978  0.1966 -0.6453
  874SOL    HW1 2865   2.783   3.020   2.696 -0.5325  1.9402 -1.1582
  874SOL    HW2 2866   2.655   2.946   2.660  1.1921 -1.9050  0.0310
  875SOL     OW 2867   1.389   3.224   1.084 -0.5523  0.5749 -0.3878
  875SOL    HW1 2868   1.406   3.146   1.137  0.1051 -1.0899 -2.8265
  875SOL    HW2 2869   1.391   3.297   1.146  1.4358 -1.0639  1.6380
  876SOL     OW 2870   0.666   3.454   2.235  0.0482 -0.0924 -0.6161
  876SOL    HW1 2871   0.673   3.528   2.295 -2.2939 -0.9173  0.7928
  876SOL    HW2 2872   0.696   3.379   2.286 -1.9877 -0.8124 -0.3792
  877SOL     OW 2873   4.007   4.372   1.652  0.0858 -0.2806  0.9974
  877SOL    HW1 2874   4.095   4.388   1.687 -0.2641 -0.0722  1.7968
  877SOL    HW2 2875   4.017   4.291   1.601  0.5713 -0.7134  1.7459
  878SOL     OW 2876   2.011   1.673   1.114  0.3531  0.9072 -0.3538
  878SOL    HW1 2877   2.063   1.753   1.118  1.5746  0.1971 -1.3594
  878SOL    HW2 2878   2.043   1.627   1.036 -2.1410  0.6597 -1.3479
  879SOL     OW 2879   2.004   0.899   0.871 -0.0157 -0.0195  0.5306
  879SOL    HW1 2880   2.069   0.938   0.930  1.4133 -0.3421 -0.7783
  879SOL    HW2 2881   2.001   0.807   0.897  0.5794 -0.1522  0.1485
  880SOL     OW 2882   3.851   1.541   1.058 -0.1841  0.1886 -0.2382
  880SOL    HW1 2883   3.788   1.503   0.997  1.6350  0.3465 -2.3353
  880SOL    HW2 2884   3.932   1.492   1.042  0.3515  0.1008  2.2492
  881SOL     OW 2885   2.622   3.898   1.687  0.0351  0.3670  0.5885
  881SOL    HW1 2886   2.573   3.969   1.645  1.3671  0.9822  0.0092
  881SOL    HW2 2887   2.668   3.940   1.759  2.0140  0.4571 -0.6536
  882SOL     OW 2888   2.570   1.825   1.731  0.3031 -0.2508 -0.3363
  882SOL    HW1 2889   2.611   1.744   1.700  0.6803 -0.5021  0.7561
  882SOL    HW2 2890   2.620   1.894   1.689 -0.0782 -0.5741 -1.3527
  883SOL     OW 2891   0.881   1.133   0.145  0.2713  0.4441 -0.3179
  883SOL    HW1 2892   0.915   1.063   0.201  0.9049  0.8347 -0.2089
  883SOL    HW2 2893   0.875   1.093   0.058  0.4989  0.2160 -0.2300
  884SOL     OW 2894   0.166   4.000   2.599  0.6362  0.0830 -0.1246
  884SOL    HW1 2895   0.101   4.046   2.653  2.1855  1.5634  0.5534
  884SOL    HW2 2896   0.183   3.919   2.646 -0.2615 -0.0633 -0.0173
  885SOL     OW 2897   1.270   0.134   2.785  0.1414 -0.6346  0.0380
  885SOL    HW1 2898   1.291   0.226   2.804 -2.6843 -0.0967  0.9598
  885SOL    HW2 2899   1.266   0.092   2.870  1.9849 -1.8383 -0.4022
  886SOL     OW 2900   2.779   3.000   0.149 -0.3503 -0.0551  0.0040
  886SOL    HW1 2901   2.837   2.925   0.158  1.2696  0.6670 -3.0272
  886SOL    HW2 2902   2.706   2.968   0.095 -0.2911  0.2097 -0.2401
  887SOL     OW 2903   0.946   3.784   1.143 -0.2798  0.3149 -0.0201
  887SOL    HW1 2904   0.958   3.869   1.183  0.2881  1.0769 -1.7147
  887SOL    HW2 2905   0.883   3.799   1.073  0.4568 -0.4578 -0.8781
  888SOL     OW 2906   2.972   1.489   1.766 -0.3406  0.4914 -0.4793
  888SOL    HW1 2907   2.937   1.431   1.834 -0.0664  0.4369 -0.3854
  888SOL    HW2 2908   2.914   1.476   1.691 -0.3362  0.1692 -0.4273
  889SOL     OW 2909   2.744   1.283   1.422 -0.2027  0.3077  0.0253
  889SOL    HW1 2910   2.831   1.298   1.384 -0.0275 -1.3529 -0.3122
  889SOL    HW2 2911   2.759   1.216   1.490 -1.2974 -0.5008 -0.4916
  890SOL     OW 2912   3.286   1.411   3.107 -0.5816  0.3121  0.0556
  890SOL    HW1 2913   3.308   1.460   3.028 -0.4339  0.3722  0.1336
  890SOL    HW2 2914   3.355   1.432   3.169 -1.8152  1.9628  0.9420
  891SOL     OW 2915   0.475   3.731   0.486 -0.0278  0.2655 -0.3448
  891SOL    HW1 2916   0.418   3.717   0.411  0.6994 -0.2978 -0.8006
  891SOL    HW2 2917   0.416   3.760   0.556 -1.1392 -1.9439 -0.2880
  892SOL     OW 2918   1.001   0.759   1.508  0.2254 -0.3002 -0.0831
  892SOL    HW1 2919   1.068   0.698   1.478 -0.3131 -0.8777 -0.1348
  892SOL    HW2 2920   0.920   0.727   1.468 -0.1456  0.1612  0.2894
  893SOL     OW 2921   1.845   2.621   0.940 -0.8332 -0.1400  0.0148
  893SOL    HW1 2922   1.771   2.629   1.000 -1.7026 -1.2226 -0.8907
  893SOL    HW2 2923   1.874   2.531   0.950 -0.3790 -0.0514 -0.5049
  894SOL     OW 2924   3.434   3.500   1.222 -0.2868 -0.7704  0.2969
  894SOL    HW1 2925   3.478   3.570   1.271 -1.6974  0.2173  0.2200
  894SOL    HW2 2926   3.346   3.498   1.258 -0.7477 -1.4181 -0.8153
  895SOL     OW 2927   1.364   3.670   0.166 -0.1444 -0.1896  0.8167
  895SOL    HW1 2928   1.449   3.644   0.129 -0.6146  0.9384 -1.2208
  895SOL    HW2 2929   1.379   3.674   0.260  2.1492  0.1976  0.5002
  896SOL     OW 2930   0.197   1.889   0.258  0.1959  0.0520 -0.3935
  896SOL    HW1 2931   0.162   1.811   0.214  1.2644 -1.5867  1.5114
  896SOL    HW2 2932   0.165   1.882   0.348  0.9017  1.4345 -0.0116
  897SOL     OW 2933   2.326   2.684   0.385  0.2487  0.1983  0.0559
  897SOL    HW1 2934   2.242   2.644   0.365  0.2975  0.9413 -1.8495
  897SOL    HW2 2935   2.308   2.778   0.387  1.1971  0.4374 -1.4025
  898SOL     OW 2936   0.002   2.334   0.606 -0.4865  0.5216 -0.0673
  898SOL    HW1 2937   0.093   2.309   0.588  0.0511  1.2490  1.4544
  898SOL    HW2 2938  -0.003   2.427   0.581 -0.5865  0.6905  0.5554
  899SOL     OW 2939   1.374   0.337   1.717  0.1868 -1.0048  0.1431
  899SOL    HW1 2940   1.347   0.422   1.752 -0.1149 -0.2003 -1.9286
  899SOL    HW2 2941   1.465   0.327   1.746 -0.1519 -0.5557  1.4162
  900SOL     OW 2942   0.110   1.756   1.405  0.2525  0.2582 -0.3361
  900SOL    HW1 2943   0.108   1.676   1.353  1.5535  0.6227 -1.0119
  900SOL    HW2 2944   0.105   1.826   1.340  0.0129  0.7148  0.1772
  901SOL     OW 2945   2.539   2.008   1.431 -0.7398  0.0349  0.2691
  901SOL    HW1 2946   2.493   1.937   1.387  1.1351 -1.3705  0.4418
  901SOL    HW2 2947   2.566   2.067   1.361 -2.2457  0.5966  0.1184
  902SOL     OW 2948   1.093   0.067   1.902  0.1210 -0.1260  0.6603
  902SOL    HW1 2949   1.100   0.023   1.818 -0.0825 -0.1324  0.6464
  902SOL    HW2 2950   1.008   0.040   1.936  1.0348 -1.7701  1.7942
  903SOL     OW 2951   2.551   2.868   2.373  0.5397 -0.5620 -0.1523
  903SOL    HW1 2952   2.542   2.858   2.467 -2.0919 -0.2906 -0.3112
  903SOL    HW2 2953   2.584   2.783   2.343  0.4312 -0.9906  0.9092
  904SOL     OW 2954   2.217   2.910   2.455 -0.1830  0.2344  0.2739
  904SOL    HW1 2955   2.126   2.901   2.483 -0.1096  0.2692  0.5242
  904SOL    HW2 2956   2.241   2.823   2.424 -0.5611  0.4186 -0.5811
  905SOL     OW 2957   0.237   4.066   1.453 -0.5751 -0.1027 -0.1301
  905SOL    HW1 2958   0.193   4.136   1.404 -0.5224 -1.0055 -1.5301
  905SOL    HW2 2959   0.191   3.986   1.426  0.1354 -0.7383  0.5198
  906SOL     OW 2960   1.568   2.604   1.059  0.1348 -0.1839 -0.1465
  906SOL    HW1 2961   1.538   2.522   1.100 -0.8307  0.6284  0.8430
  906SOL    HW2 2962   1.530   2.602   0.971  2.7060 -2.2240 -1.3582
  907SOL     OW 2963   0.679   2.959   0.850  0.6085  0.0036  0.3982
  907SOL    HW1 2964   0.607   2.924   0.797  2.2415  1.4902 -3.1289
  907SOL    HW2 2965   0.674   3.054   0.838  3.0154  0.1582  0.1321
  908SOL     OW 2966   0.120   1.634   2.145  0.1416 -0.2304 -0.1985
  908SOL    HW1 2967   0.109   1.703   2.210 -1.8564  1.5111 -2.2184
  908SOL    HW2 2968   0.050   1.572   2.164 -0.6942  0.4820 -0.8721
  909SOL     OW 2969   2.547   1.755   0.030  0.2110 -0.7102  0.5514
  909SOL    HW1 2970   2.508   1.811  -0.038 -0.3502 -1.4973  0.2097
  909SOL    HW2 2971   2.639   1.779   0.029 -0.2559  1.4189  1.5940
  910SOL     OW 2972   1.107   4.389   0.349 -0.1679 -0.5746  0.2916
  910SOL    HW1 2973   1.182   4.344   0.388  0.2604 -0.7632 -0.7169
  910SOL    HW2 2974   1.038   4.323   0.347  0.3158 -1.0637 -0.7586
  911SOL     OW 2975   2.598   4.156   0.204  0.1424  0.5176  0.6205
  911SOL    HW1 2976   2.584   4.095   0.132  2.0695  0.5364  0.1812
  911SOL    HW2 2977   2.668   4.116   0.255  0.9847  2.0352  0.7027
  912SOL     OW 2978   0.945   3.945   0.588 -0.5974  0.0110  0.5655
  912SOL    HW1 2979   0.970   3.917   0.500 -1.4533  1.4180 -0.1663
  912SOL    HW2 2980   0.977   3.876   0.645  2.7663  0.4719 -0.5165
  913SOL     OW 2981   1.925   4.171   2.556  0.0001  0.1433 -0.7861
  913SOL    HW1 2982   1.901   4.085   2.592 -1.7656  0.8091 -0.2967
  913SOL    HW2 2983   1.853   4.193   2.498  1.0127  0.7994 -1.8354
  914SOL     OW 2984   0.197   3.595   2.472 -0.2513 -0.1118  0.5586
  914SOL    HW1 2985   0.136   3.569   2.540 -0.3831 -2.3764 -0.3390
  914SOL    HW2 2986   0.212   3.516   2.421 -0.7744  1.6105 -2.5467
  915SOL     OW 2987   3.894   3.164   2.542 -0.0309  0.4999 -0.2471
  915SOL    HW1 2988   3.940   3.177   2.459  0.9756 -1.8483 -0.1440
  915SOL    HW2 2989   3.960   3.182   2.609 -0.9778  2.8887  0.1262
  916SOL     OW 2990   1.979   1.511   2.175 -0.3986 -0.3072 -0.4653
  916SOL    HW1 2991   1.893   1.526   2.135 -0.1985  0.7310 -0.5249
  916SOL    HW2 2992   1.979   1.567   2.253  0.2840 -0.1869 -0.5499
  917SOL     OW 2993   3.356   4.019   2.254  0.0315 -0.0383  0.2365
  917SOL    HW1 2994   3.416   3.944   2.262 -1.4785 -1.3649 -0.2577
  917SOL    HW2 2995   3.368   4.049   2.164  0.8354  0.5184  0.5150
  918SOL     OW 2996   3.890   4.226   0.304  0.8465 -0.0792  0.4405
  918SOL    HW1 2997   3.868   4.183   0.222  0.1373 -1.1970  1.1932
  918SOL    HW2 2998   3.874   4.319   0.287 -0.0535 -0.3742 -0.4539
  919SOL     OW 2999   4.131   4.203   1.028 -1.0184  0.9192  0.1694
  919SOL    HW1 3000   4.202   4.160   0.981 -0.7593  0.5065  0.9167
  919SOL    HW2 3001   4.051   4.171   0.987 -0.8144  3.4044 -2.4751
  920SOL     OW 3002   0.766   3.160   2.761 -0.2242  0.2633  0.5582
  920SOL    HW1 3003   0.702   3.222   2.796  0.5531  2.8222 -2.1771
  920SOL    HW2 3004   0.765   3.175   2.666  0.2738 -3.7689 -0.2820
  921SOL     OW 3005   1.284   1.324   2.358 -0.3848 -0.2113 -0.7012
  921SOL    HW1 3006   1.345   1.252   2.347  0.1087  0.2672 -1.1525
  921SOL    HW2 3007   1.313   1.368   2.438 -1.3587 -1.1534  0.1937
  922SOL     OW 3008   2.854   1.943   2.010  0.3973 -0.8609 -0.2109
  922SOL    HW1 3009   2.895   1.896   1.937 -0.8322  0.2991 -1.7261
  922SOL    HW2 3010   2.790   2.001   1.968 -0.3462 -0.1303  1.8081
  923SOL     OW 3011   3.858   0.961   0.108  0.5872  0.8746  0.4493
  923SOL    HW1 3012   3.769   0.947   0.140  0.8567 -0.2140  0.7508
  923SOL    HW2 3013   3.878   1.051   0.134  0.0533  0.6948  1.5693
  924SOL     OW 3014   0.934   1.469   2.848 -0.7152  0.4469  0.1288
  924SOL    HW1 3015   1.005   1.449   2.787 -1.6548  1.3461 -1.3414
  924SOL    HW2 3016   0.978   1.500   2.927  0.5488  1.1139 -0.7940
  925SOL     OW 3017   3.343   3.363   0.608  0.1863 -0.1028 -0.1326
  925SOL    HW1 3018   3.290   3.443   0.616  0.6856  0.1905  0.2532
  925SOL    HW2 3019   3.324   3.331   0.520 -2.0470 -0.9988  0.5945
  926SOL     OW 3020   0.083   3.193   1.608  0.2841 -0.4146  0.1917
  926SOL    HW1 3021   0.028   3.137   1.662  0.2528 -0.5598  0.0104
  926SOL    HW2 3022   0.145   3.233   1.669 -0.7788  0.6843  0.6014
  927SOL     OW 3023   0.175   1.120   1.080  0.2402 -0.0685 -0.4371
  927SOL    HW1 3024   0.218   1.167   1.152  0.6101 -0.7450 -0.2101
  927SOL    HW2 3025   0.219   1.151   1.001 -0.7579  1.3404 -0.4734
  928SOL     OW 3026   0.876   4.278   2.903  0.4971 -0.3707  0.3386
  928SOL    HW1 3027   0.946   4.268   2.967  0.5240 -0.4583  0.2960
  928SOL    HW2 3028   0.888   4.205   2.843  2.0485  1.0712 -1.2442
  929SOL     OW 3029   4.027   4.119   1.517 -0.3763 -0.5409  0.0383
  929SOL    HW1 3030   4.051   4.124   1.424 -1.6903  1.9416 -0.2371
  929SOL    HW2 3031   4.098   4.068   1.557  3.6463  3.4235 -1.2793
  930SOL     OW 3032   3.900   1.584   2.812 -0.2415  0.3141 -0.3596
  930SOL    HW1 3033   3.917   1.616   2.901  0.6040  0.0436 -0.4116
  930SOL    HW2 3034   3.823   1.633   2.784 -1.8480 -1.1052  1.2865
  931SOL     OW 3035   4.252   3.337   1.915  0.1760 -0.0210  0.3546
  931SOL    HW1 3036   4.307   3.265   1.883  2.7657  1.1099  1.9378
  931SOL    HW2 3037   4.261   3.333   2.010 -1.9813  0.6820  0.6340
  932SOL     OW 3038   1.921   1.506   0.034 -0.1729 -0.1821  0.5930
  932SOL    HW1 3039   1.929   1.591  -0.010 -1.0037 -0.0696  0.6518
  932SOL    HW2 3040   1.968   1.446  -0.023 -0.2653  0.1732  0.1320
  933SOL     OW 3041   3.154   1.315   2.658 -0.7754 -0.5138  0.5188
  933SOL    HW1 3042   3.109   1.256   2.598  0.2101 -1.6179  0.8230
  933SOL    HW2 3043   3.169   1.262   2.737 -0.9753  0.5353  1.2816
  934SOL     OW 3044   0.687   2.934   2.276  0.0130  0.4210  0.5972
  934SOL    HW1 3045   0.743   2.856   2.277  0.0603  0.4435  2.1064
  934SOL    HW2 3046   0.744   3.006   2.302 -0.1361  0.9022 -0.3630
  935SOL     OW 3047   4.148   4.274   2.734  0.0654 -0.4459  0.2808
  935SOL    HW1 3048   4.106   4.335   2.673  0.4019  0.2610  0.7413
  935SOL    HW2 3049   4.163   4.326   2.813  1.8737 -0.6341  0.1081
  936SOL     OW 3050   1.432   4.077   1.527  0.1921  0.2198  0.5193
  936SOL    HW1 3051   1.450   4.119   1.611 -0.1007  2.0818 -0.3157
  936SOL    HW2 3052   1.499   4.110   1.468 -2.1317  2.5022 -1.0827
  937SOL     OW 3053   3.482   1.918   0.551  0.0596 -0.2066  0.1423
  937SOL    HW1 3054   3.489   2.013   0.558  0.1076 -0.1032 -1.1003
  937SOL    HW2 3055   3.508   1.885   0.638  2.0202  0.8315  0.0111
  938SOL     OW 3056   2.400   0.533   2.359 -0.4448 -0.0256  0.0899
  938SOL    HW1 3057   2.443   0.570   2.437 -0.1881 -0.5528  0.2028
  938SOL    HW2 3058   2.420   0.596   2.290 -0.5854  0.3950  0.4216
  939SOL     OW 3059   2.161   0.498   2.486 -0.0258 -0.2534  0.2944
  939SOL    HW1 3060   2.209   0.451   2.554  0.7139  0.7495  0.4903
  939SOL    HW2 3061   2.227   0.553   2.443 -0.8644  0.6789  0.1443
  940SOL     OW 3062   0.140   2.854   1.991  0.5221 -0.0131  0.2911
  940SOL    HW1 3063   0.139   2.760   2.012 -0.2090  0.1042  0.8385
  940SOL    HW2 3064   0.230   2.881   2.006  0.8728 -0.7538 -0.4570
  941SOL     OW 3065   3.034   0.678   1.788  0.4083  0.2649  0.1667
  941SOL    HW1 3066   2.942   0.658   1.768  0.4626 -0.0770  0.2514
  941SOL    HW2 3067   3.073   0.696   1.702  0.3899 -0.1336  0.0751
  942SOL     OW 3068   2.648   0.767   0.822  0.3212 -0.2282  0.2172
  942SOL    HW1 3069   2.570   0.747   0.771  0.9558  0.0300 -0.8829
  942SOL    HW2 3070   2.670   0.685   0.867 -0.8736 -0.1617  0.9728
  943SOL     OW 3071   0.523   1.952   1.063 -0.1600  0.6294  0.0457
  943SOL    HW1 3072   0.440   2.000   1.064 -0.3211  0.3755 -0.5039
  943SOL    HW2 3073   0.558   1.963   1.151 -2.5101 -2.2301  1.5014
  944SOL     OW 3074   2.248   3.190   0.835 -0.3875 -0.1184  0.4300
  944SOL    HW1 3075   2.304   3.112   0.832 -0.2471  0.0085 -0.8571
  944SOL    HW2 3076   2.260   3.231   0.750 -2.7240 -0.2662 -0.0354
  945SOL     OW 3077   0.149   0.097   1.099 -0.1750  0.0056  0.4528
  945SOL    HW1 3078   0.090   0.158   1.055 -0.0814  0.3875  0.8502
  945SOL    HW2 3079   0.144   0.121   1.192 -2.0223 -2.1448  0.9922
  946SOL     OW 3080   0.554   4.048   2.129 -0.3332  0.5948 -0.5544
  946SOL    HW1 3081   0.536   4.140   2.148  0.4634  0.4089  1.3674
  946SOL    HW2 3082   0.468   4.006   2.132 -0.7576  1.3188 -1.8641
  947SOL     OW 3083   1.130   1.204   0.923  0.2680  0.4375  0.1625
  947SOL    HW1 3084   1.214   1.247   0.942  1.1295 -1.4449  0.8603
  947SOL    HW2 3085   1.065   1.257   0.970  1.3000  0.8687  1.1478
  948SOL     OW 3086   4.183   1.705   2.106  0.0333  0.0743  0.5032
  948SOL    HW1 3087   4.252   1.640   2.092 -1.5920 -1.5896 -0.1302
  948SOL    HW2 3088   4.159   1.734   2.018 -0.5071  0.1707  0.6802
  949SOL     OW 3089   3.692   0.362   2.621 -0.2990  0.6501  0.4155
  949SOL    HW1 3090   3.601   0.376   2.593 -0.3995  2.2281  1.4231
  949SOL    HW2 3091   3.743   0.377   2.542 -0.8769 -0.0472 -0.1129
  950SOL     OW 3092   0.508   4.146   0.608 -0.1076 -0.0259 -0.1560
  950SOL    HW1 3093   0.445   4.120   0.541  0.4159  0.2199 -0.7509
  950SOL    HW2 3094   0.591   4.108   0.580  0.2772  0.7065 -0.0563
  951SOL     OW 3095   0.457   3.114   0.320  0.1186 -0.5472 -0.1157
  951SOL    HW1 3096   0.411   3.135   0.402  2.6515  1.7402  0.8607
  951SOL    HW2 3097   0.390   3.124   0.252 -1.0675  1.8448  1.2746
  952SOL     OW 3098   1.984   3.111   2.992  0.3013  0.1609 -0.1632
  952SOL    HW1 3099   2.003   3.202   2.969  0.5095  0.4929  1.2482
  952SOL    HW2 3100   1.889   3.110   3.006  0.4360  0.4422  0.8931
  953SOL     OW 3101   3.778   1.402   3.095 -0.3958 -0.0740  0.3950
  953SOL    HW1 3102   3.770   1.498   3.098 -0.5129 -0.0968  0.9332
  953SOL    HW2 3103   3.873   1.386   3.094 -0.3765  0.0511  0.0502
  954SOL     OW 3104   2.484   1.189   1.145 -0.1884 -0.5837 -0.5371
  954SOL    HW1 3105   2.489   1.267   1.201  0.9072  0.1070 -1.5433
  954SOL    HW2 3106   2.541   1.125   1.187  0.7432 -0.0183 -0.9111
  955SOL     OW 3107   2.388   1.329   0.558 -0.4550  0.2201  0.1776
  955SOL    HW1 3108   2.307   1.278   0.559  0.9666 -2.2060  0.0534
  955SOL    HW2 3109   2.401   1.352   0.466 -0.7299  0.1240  0.1137
  956SOL     OW 3110   3.422   0.789   2.621  0.2313  0.0490  0.2479
  956SOL    HW1 3111   3.414   0.870   2.571 -0.9659 -0.1394  0.1136
  956SOL    HW2 3112   3.338   0.745   2.610  1.0357 -1.4769 -0.1066
  957SOL     OW 3113   1.182   1.800   0.576 -0.3165  0.1179 -0.3789
  957SOL    HW1 3114   1.242   1.866   0.540 -2.0596  2.3726  0.6064
  957SOL    HW2 3115   1.179   1.732   0.508  2.1937  0.5808 -1.0836
  958SOL     OW 3116   1.548   0.483   2.938 -0.4385  0.4066  0.2979
  958SOL    HW1 3117   1.621   0.471   2.877  0.1378  2.1374  0.5838
  958SOL    HW2 3118   1.589   0.487   3.024 -0.8806  1.1690  0.4826
  959SOL     OW 3119   2.056   0.350   0.970 -0.0477 -0.4563  0.6610
  959SOL    HW1 3120   2.128   0.291   0.992 -0.0505 -0.9092 -0.4313
  959SOL    HW2 3121   2.015   0.309   0.894 -1.9283 -0.6008  1.6906
  960SOL     OW 3122   2.858   2.408   2.161  0.3523  0.4429 -0.4461
  960SOL    HW1 3123   2.940   2.372   2.128  0.5133  1.6188 -1.3895
  960SOL    HW2 3124   2.880   2.442   2.248  0.6911  0.1051 -0.3998
  961SOL     OW 3125   1.151   1.127   2.685  0.0188  0.7232  0.4266
  961SOL    HW1 3126   1.194   1.099   2.604 -0.2543 -1.2257  0.9023
  961SOL    HW2 3127   1.222   1.131   2.750 -0.2430 -1.2815  0.9126
  962SOL     OW 3128   4.073   3.670   0.213  0.5731  0.2531  0.1034
  962SOL    HW1 3129   3.992   3.719   0.199  0.8832  0.4902 -0.9813
  962SOL    HW2 3130   4.049   3.579   0.195  0.7293  0.4298 -1.1228
  963SOL     OW 3131   2.889   2.147   2.902 -0.0854 -0.1247  0.2599
  963SOL    HW1 3132   2.859   2.128   2.813  0.4872  0.5174 -0.0771
  963SOL    HW2 3133   2.968   2.093   2.913 -0.0878 -0.1120  0.3409
  964SOL     OW 3134   3.544   3.047   0.502 -0.3149 -0.3595 -0.3363
  964SOL    HW1 3135   3.475   3.094   0.455 -0.0034  0.9461  0.4491
  964SOL    HW2 3136   3.604   3.116   0.532 -0.1617 -1.1849  1.3854
  965SOL     OW 3137   2.988   0.349   1.887  0.1699 -0.0971  0.0876
  965SOL    HW1 3138   2.970   0.401   1.809 -1.0776  2.2078  1.7977
  965SOL    HW2 3139   3.083   0.357   1.900  0.0127  1.8028  0.2863
  966SOL     OW 3140   1.408   4.303   1.002  0.5781 -0.3706  0.5627
  966SOL    HW1 3141   1.415   4.369   0.934 -0.8258 -0.6619  0.1165
  966SOL    HW2 3142   1.481   4.243   0.985  0.7073 -0.0011 -0.1979
  967SOL     OW 3143   2.421   0.899   2.030 -0.5996  0.2224 -0.1239
  967SOL    HW1 3144   2.500   0.883   1.978 -0.2316  0.7107  0.2806
  967SOL    HW2 3145   2.412   0.821   2.084  2.0718  1.8289  2.9900
  968SOL     OW 3146   0.903   4.210   0.346  0.2440  0.2028  0.1689
  968SOL    HW1 3147   0.866   4.152   0.280 -0.3250  0.5894  0.1421
  968SOL    HW2 3148   0.842   4.206   0.419 -0.6373  1.9363 -0.4171
  969SOL     OW 3149   1.276   1.474   1.708  0.2461  0.2327 -0.1281
  969SOL    HW1 3150   1.270   1.552   1.653  0.2611  0.3200 -0.0052
  969SOL    HW2 3151   1.350   1.491   1.766 -0.1005  0.3686  0.2799
  970SOL     OW 3152   3.270   2.624   2.727 -0.2682 -0.2037  0.1705
  970SOL    HW1 3153   3.192   2.579   2.759  0.7205 -0.0380  3.1422
  970SOL    HW2 3154   3.237   2.687   2.663 -2.4992 -0.4541  0.9842
  971SOL     OW 3155   1.779   1.622   2.035  0.0683  0.1255  0.2516
  971SOL    HW1 3156   1.775   1.683   1.962  0.6388  1.7359  1.5015
  971SOL    HW2 3157   1.694   1.632   2.079  0.1776  0.0632  0.4821
  972SOL     OW 3158   3.337   1.700   0.970 -0.2275  0.0845 -0.3162
  972SOL    HW1 3159   3.338   1.711   1.066  0.2141  0.8732 -0.4042
  972SOL    HW2 3160   3.426   1.672   0.949 -0.6898 -1.4730 -0.3659
  973SOL     OW 3161   0.123   4.073   0.607 -0.6661 -0.3008  0.1049
  973SOL    HW1 3162   0.060   4.111   0.668  0.2951  0.2016  0.8199
  973SOL    HW2 3163   0.122   4.132   0.531  0.9904  1.4111  1.3033
  974SOL     OW 3164   3.769   1.330   1.521  0.0754  0.5190 -0.2305
  974SOL    HW1 3165   3.755   1.237   1.501  0.3194  0.2377  0.8623
  974SOL    HW2 3166   3.741   1.376   1.441 -0.9415 -0.4203 -0.4374
  975SOL     OW 3167   2.870   2.104   0.359 -0.3338 -0.2901  0.2882
  975SOL    HW1 3168   2.952   2.147   0.381 -1.3812  1.4891  0.9048
  975SOL    HW2 3169   2.865   2.029   0.418  0.9741 -0.6129  0.0116
  976SOL     OW 3170   3.726   2.364   1.748  0.4099  0.9781  0.3685
  976SOL    HW1 3171   3.734   2.406   1.833  0.6387  1.6504  0.0211
  976SOL    HW2 3172   3.681   2.281   1.766  1.2555  0.6981  1.2602
  977SOL     OW 3173   0.573   2.841   2.741  0.0543  0.1560  0.0853
  977SOL    HW1 3174   0.641   2.909   2.740 -0.7892  1.0245 -0.3217
  977SOL    HW2 3175   0.492   2.889   2.722 -0.7190 -0.8048  0.8880
  978SOL     OW 3176   2.871   0.434   0.008 -0.4502  0.1175 -0.2839
  978SOL    HW1 3177   2.836   0.523   0.014  0.2269  0.4220 -0.7320
  978SOL    HW2 3178   2.793   0.378   0.002 -0.8830  0.8177 -1.6806
  979SOL     OW 3179   0.141   1.434   2.443 -0.3339 -0.3112 -0.4643
  979SOL    HW1 3180   0.182   1.474   2.519 -1.5226 -0.9187  0.5196
  979SOL    HW2 3181   0.195   1.358   2.423  0.3022  0.1695 -0.5795
  980SOL     OW 3182   1.018   1.996   0.390  0.0757  0.1151 -0.2275
  980SOL    HW1 3183   1.084   1.930   0.413  0.6453  0.3155 -1.2113
  980SOL    HW2 3184   1.062   2.051   0.326 -0.4875  1.2977  0.3717
  981SOL     OW 3185   2.750   0.960   2.328 -0.0754 -0.4156  0.1621
  981SOL    HW1 3186   2.745   1.037   2.271  1.3752 -1.2762 -1.2199
  981SOL    HW2 3187   2.799   0.989   2.405  0.9424 -0.0653 -0.5989
  982SOL     OW 3188   2.113   0.905   3.046 -0.7020 -0.3261 -0.6843
  982SOL    HW1 3189   2.158   0.823   3.068 -2.3212 -1.3573 -0.9797
  982SOL    HW2 3190   2.131   0.918   2.953  0.4122  0.2491 -0.4074
  983SOL     OW 3191   2.308   3.616   2.827 -0.0194  0.3647  0.1708
  983SOL    HW1 3192   2.368   3.673   2.780  0.3457 -0.1241  0.0362
  983SOL    HW2 3193   2.332   3.527   2.799 -0.8013  0.1620  0.1063
  984SOL     OW 3194   0.968   1.341   2.314  0.0048 -0.8118  0.0510
  984SOL    HW1 3195   0.910   1.345   2.238 -1.0472 -1.0506  0.8268
  984SOL    HW2 3196   1.052   1.312   2.277 -1.0932 -3.2953 -0.7326
  985SOL     OW 3197   4.082   3.416   0.052 -0.2700  0.3761  0.4321
  985SOL    HW1 3198   4.068   3.379  -0.036  1.0516  2.3082 -0.6548
  985SOL    HW2 3199   4.177   3.422   0.061 -0.3863  0.3003  1.9837
  986SOL     OW 3200   0.402   0.878   2.345  0.4949  0.2723 -0.0072
  986SOL    HW1 3201   0.458   0.811   2.384  0.4036  0.1109 -0.1478
  986SOL    HW2 3202   0.462   0.944   2.311  0.6198 -0.0829 -0.4933
  987SOL     OW 3203   1.915   0.243   0.767  0.2853  0.4332 -0.0338
  987SOL    HW1 3204   1.976   0.235   0.693 -0.3796 -2.9483 -0.3579
  987SOL    HW2 3205   1.840   0.290   0.731  0.5390  0.0391 -1.1102
  988SOL     OW 3206   1.003   2.514   2.685 -0.2283  1.0543  0.1347
  988SOL    HW1 3207   1.038   2.590   2.732 -0.3810  0.3622  1.4102
  988SOL    HW2 3208   0.909   2.517   2.702 -0.4113  1.2715 -0.8642
  989SOL     OW 3209   2.233   0.855   1.019 -0.2919  0.1684 -0.4100
  989SOL    HW1 3210   2.246   0.764   0.992  1.1613  0.0211  0.6777
  989SOL    HW2 3211   2.306   0.903   0.978  0.8896  0.2430  1.6566
  990SOL     OW 3212   1.954   4.275   2.991  0.1776  0.0713  0.6984
  990SOL    HW1 3213   1.970   4.303   2.901  0.7483 -0.9752  0.4532
  990SOL    HW2 3214   2.041   4.252   3.024 -0.2790 -1.6743  0.7685
  991SOL     OW 3215   0.771   1.569   0.960  0.5553  0.3330 -0.2028
  991SOL    HW1 3216   0.761   1.649   0.909  0.2238  1.4982  1.6064
  991SOL    HW2 3217   0.691   1.563   1.012  0.2788 -1.5575 -0.7733
  992SOL     OW 3218   4.169   2.514   2.226  0.0816  0.2132  0.1603
  992SOL    HW1 3219   4.256   2.476   2.209  0.1572  0.6163 -0.3473
  992SOL    HW2 3220   4.158   2.504   2.321  0.8634  0.5309  0.2976
  993SOL     OW 3221   3.489   4.147   1.233  0.5371 -0.3589  0.3471
  993SOL    HW1 3222   3.557   4.090   1.270  0.9557  0.1672  0.4026
  993SOL    HW2 3223   3.535   4.228   1.212 -0.0496 -0.0474  0.2544
  994SOL     OW 3224   0.153   0.247   0.036  0.2399 -0.8062 -0.5831
  994SOL    HW1 3225   0.214   0.204   0.097 -0.8096 -0.7473  0.5334
  994SOL    HW2 3226   0.082   0.185   0.025  0.0933 -0.5329 -1.2381
  995SOL     OW 3227   3.362   0.725   1.296  0.3009 -0.2165  0.3772
  995SOL    HW1 3228   3.383   0.795   1.357  0.1754 -0.6883  0.9693
  995SOL    HW2 3229   3.427   0.734   1.226 -2.1463  3.0856 -1.7707
  996SOL     OW 3230   3.918   4.036   1.788 -0.3175  0.3281 -0.2204
  996SOL    HW1 3231   3.974   4.063   1.715 -1.2649 -0.1706 -1.1600
  996SOL    HW2 3232   3.846   3.988   1.746 -0.6707 -0.3028  1.0880
  997SOL     OW 3233   4.260   2.124   1.656  0.2714 -0.5514  0.1763
  997SOL    HW1 3234   4.302   2.126   1.570 -1.4399  0.2636 -0.6916
  997SOL    HW2 3235   4.278   2.209   1.695  1.1672 -0.9707  0.7248
  998SOL     OW 3236   1.861   0.759   0.630  0.0102  0.2254  0.1631
  998SOL    HW1 3237   1.841   0.743   0.722  0.0150 -1.0305 -0.0300
  998SOL    HW2 3238   1.780   0.736   0.583  0.1628  0.3737 -0.1749
  999SOL     OW 3239   0.094   0.040   2.852  0.0085 -0.0083 -0.5325
  999SOL    HW1 3240   0.124   0.020   2.764 -0.1394  1.2290 -0.8812
  999SOL    HW2 3241   0.004   0.005   2.855 -0.4002  0.9304 -1.2654
 1000SOL     OW 3242   3.697   3.832   2.675 -0.5865  0.0163  0.5140
 1000SOL    HW1 3243   3.622   3.791   2.633 -0.0068  0.0957 -0.6272
 1000SOL    HW2 3244   3.722   3.904   2.617 -0.3098  0.6920  1.4429
 1001SOL     OW 3245   0.363   2.357   0.274 -0.7351  0.2118 -0.0166
 1001SOL    HW1 3246   0.449   2.319   0.290 -0.2458  1.4643  0.4149
 1001SOL    HW2 3247   0.334   2.317   0.192  0.5030  0.1860 -0.4632
 1002SOL     OW 3248   0.630   4.174   1.097  0.2686 -0.0891 -0.5144
 1002SOL    HW1 3249   0.543   4.212   1.084  0.8184  1.4415  0.0026
 1002SOL    HW2 3250   0.633   4.151   1.190  1.1854  2.0718  0.0543
 1003SOL     OW 3251   0.466   0.104   1.037 -0.1016 -0.0689 -0.0546
 1003SOL    HW1 3252   0.376   0.072   1.029  0.2706 -1.0758 -0.3484
 1003SOL    HW2 3253   0.507   0.080   0.954  1.0176 -1.5169  0.8865
 1004SOL     OW 3254   2.586   1.648   1.511 -0.3184  0.5167  0.0965
 1004SOL    HW1 3255   2.541   1.712   1.457 -1.0409 -1.7673 -2.1702
 1004SOL    HW2 3256   2.516   1.602   1.558 -0.2791 -1.4837 -1.6673
 1005SOL     OW 3257   4.243   0.511   1.251  0.3914 -0.2820  0.3190
 1005SOL    HW1 3258   4.175   0.502   1.184 -0.0810  0.7141  0.6406
 1005SOL    HW2 3259   4.325   0.509   1.202  0.0348  1.0502 -0.3984
 1006SOL     OW 3260   4.338   4.066   2.749  0.0157  0.8704 -0.1415
 1006SOL    HW1 3261   4.367   4.046   2.838 -2.6352 -1.2741  0.3791
 1006SOL    HW2 3262   4.268   4.131   2.760 -0.6137  0.2868 -0.5761
 1007SOL     OW 3263   1.566   2.763   1.303  0.0771  0.0629  0.1041
 1007SOL    HW1 3264   1.549   2.714   1.383 -1.0644 -0.6475 -0.5585
 1007SOL    HW2 3265   1.562   2.698   1.233  0.1831  0.8202 -0.6233
 1008SOL     OW 3266   0.174   0.489   1.270 -0.1760  0.0817  1.1011
 1008SOL    HW1 3267   0.126   0.569   1.293  0.1951  0.6558 -0.0668
 1008SOL    HW2 3268   0.141   0.464   1.184 -0.0747 -0.8746  1.3261
 1009SOL     OW 3269   1.460   2.299   1.806 -0.3901 -0.6097  0.6794
 1009SOL    HW1 3270   1.515   2.356   1.752 -0.8214 -1.0007 -0.1839
 1009SOL    HW2 3271   1.504   2.299   1.891  0.3440 -0.0415  0.3198
 1010SOL     OW 3272   4.002   1.868   1.967 -0.2466 -0.6999  0.9937
 1010SOL    HW1 3273   4.073   1.926   1.994  1.9616 -1.3728 -2.6604
 1010SOL    HW2 3274   3.957   1.917   1.897 -1.0812 -1.6974  0.8099
 1011SOL     OW 3275   0.128   3.835   1.736  0.1210  0.4062  0.7903
 1011SOL    HW1 3276   0.056   3.841   1.673  0.8764  2.3310  0.0002
 1011SOL    HW2 3277   0.188   3.771   1.698 -0.7122 -0.4951  0.9734
 1012SOL     OW 3278   3.506   3.044   2.287 -0.0375 -0.1539 -0.4713
 1012SOL    HW1 3279   3.517   3.139   2.296  1.0363 -0.3365  0.4034
 1012SOL    HW2 3280   3.489   3.014   2.377 -0.4093 -0.7846 -0.7497
 1013SOL     OW 3281   0.812   4.388   1.989 -0.3627 -0.7824  0.2465
 1013SOL    HW1 3282   0.727   4.411   1.951  0.2718  0.5151 -0.4464
 1013SOL    HW2 3283   0.809   4.292   1.996 -1.3600 -0.8805 -1.0303
 1014SOL     OW 3284   3.330   3.194   0.372 -0.0039  0.3181 -0.3776
 1014SOL    HW1 3285   3.373   3.180   0.287 -0.4588 -2.9740 -0.1824
 1014SOL    HW2 3286   3.247   3.235   0.350  0.6936  1.2906 -1.3056
 1015SOL     OW 3287   1.945   1.404   1.181  0.0755 -0.0677 -0.0621
 1015SOL    HW1 3288   1.854   1.407   1.208 -0.1962 -0.1208 -0.9632
 1015SOL    HW2 3289   1.982   1.488   1.208 -1.1726  1.5277 -2.9326
 1016SOL     OW 3290   2.663   0.559   2.024 -0.5927  0.4885  0.1146
 1016SOL    HW1 3291   2.663   0.464   2.018  0.7348  0.4650  0.0565
 1016SOL    HW2 3292   2.755   0.584   2.011 -0.5052  1.6242  2.4408
 1017SOL     OW 3293   1.171   3.096   0.504 -0.0983 -0.3382  0.0278
 1017SOL    HW1 3294   1.172   3.164   0.570 -1.5320  0.7431 -0.9937
 1017SOL    HW2 3295   1.079   3.090   0.477  0.2402 -1.6262 -0.9604
 1018SOL     OW 3296   1.448   1.688   3.133  0.3161 -0.1130  0.1532
 1018SOL    HW1 3297   1.379   1.626   3.107  1.1619 -0.1751 -2.1460
 1018SOL    HW2 3298   1.491   1.712   3.051  0.8230  2.5932  1.1140
 1019SOL     OW 3299   1.759   4.181   0.328  0.0427  0.2587  0.4350
 1019SOL    HW1 3300   1.819   4.236   0.278  0.5534  0.8752  1.6823
 1019SOL    HW2 3301   1.817   4.126   0.382 -0.4561 -1.4285 -0.6720
 1020SOL     OW 3302   2.569   1.126   2.540  0.4804 -0.5148  0.0812
 1020SOL    HW1 3303   2.489   1.172   2.567  0.5588  0.6326 -1.5023
 1020SOL    HW2 3304   2.621   1.120   2.620 -0.7166 -0.3249  0.9169
 1021SOL     OW 3305   3.033   1.113   1.763 -0.3358 -0.5937  0.0282
 1021SOL    HW1 3306   3.019   1.151   1.850 -4.2230 -1.1440 -0.1577
 1021SOL    HW2 3307   3.086   1.035   1.779  0.7145  0.3882  1.5775
 1022SOL     OW 3308   3.716   1.483   1.295  0.2089 -0.0139 -0.6023
 1022SOL    HW1 3309   3.769   1.481   1.215  1.9138  0.3904  0.4600
 1022SOL    HW2 3310   3.741   1.565   1.337 -0.0693 -0.5889  0.7226
 1023SOL     OW 3311   1.384   3.025   1.658 -0.0290  0.0180 -0.3223
 1023SOL    HW1 3312   1.452   2.974   1.703 -0.8024 -0.2616  0.5608
 1023SOL    HW2 3313   1.369   3.100   1.715 -1.0514 -0.3606 -0.0737
 1024SOL     OW 3314   3.286   1.874   1.542  0.6639  0.2117  0.1083
 1024SOL    HW1 3315   3.267   1.813   1.614  0.5152  0.8310  0.6097
 1024SOL    HW2 3316   3.289   1.820   1.464 -0.4499 -0.3061  0.4082
 1025SOL     OW 3317   2.196   4.364   2.510  0.3917 -0.3013 -0.3293
 1025SOL    HW1 3318   2.285   4.391   2.488  0.3986  1.2169  1.3593
 1025SOL    HW2 3319   2.141   4.410   2.446  0.7924 -1.1109 -1.2697
 1026SOL     OW 3320   3.070   4.103   1.798  0.2649 -0.0643  0.1295
 1026SOL    HW1 3321   3.058   4.193   1.769 -0.9347 -0.3401 -0.2508
 1026SOL    HW2 3322   3.135   4.067   1.737  1.5707  0.8258  0.9328
 1027SOL     OW 3323   1.266   4.041   2.861 -0.3855 -0.0162  0.5138
 1027SOL    HW1 3324   1.203   3.987   2.814  0.4652  1.2692 -2.3066
 1027SOL    HW2 3325   1.213   4.112   2.898 -0.9809 -0.6416  0.8887
 1028SOL     OW 3326   3.088   4.313   1.042  0.0615 -0.1158 -0.5189
 1028SOL    HW1 3327   3.154   4.296   1.109  0.2112  0.5178 -0.5012
 1028SOL    HW2 3328   3.122   4.387   0.993 -0.7845  0.4203 -0.3176
 1029SOL     OW 3329   2.428   2.911   0.188  0.0336  0.1111  0.0801
 1029SOL    HW1 3330   2.484   2.954   0.124  0.0668  0.9673  0.6700
 1029SOL    HW2 3331   2.479   2.836   0.218  0.1646 -0.0873 -0.6224
 1030SOL     OW 3332   4.118   1.900   2.511  0.1892  0.2676  0.2334
 1030SOL    HW1 3333   4.119   1.813   2.471  0.1168  1.0792 -1.6580
 1030SOL    HW2 3334   4.149   1.885   2.600 -0.5978 -1.7988  0.2302
 1031SOL     OW 3335   0.070   1.668   0.136  0.3294  0.3333 -0.2236
 1031SOL    HW1 3336  -0.015   1.712   0.131  0.2114  0.1819  0.3147
 1031SOL    HW2 3337   0.061   1.591   0.081 -0.3837 -0.4639  0.9617
 1032SOL     OW 3338   3.319   0.170   0.737 -0.8416  0.0364  0.1123
 1032SOL    HW1 3339   3.320   0.184   0.831  2.9442  3.3574 -0.1522
 1032SOL    HW2 3340   3.240   0.214   0.706 -1.9271 -0.7573  1.6285
 1033SOL     OW 3341   4.283   0.539   2.524  0.7933 -0.4343  0.7891
 1033SOL    HW1 3342   4.275   0.469   2.459  0.6599  0.0054  0.3212
 1033SOL    HW2 3343   4.307   0.494   2.605 -2.3101 -1.3934  1.2973
 1034SOL     OW 3344   3.268   0.163   2.989 -0.7690  0.3954  0.4247
 1034SOL    HW1 3345   3.194   0.199   3.039 -0.2255  0.8499  0.9204
 1034SOL    HW2 3346   3.340   0.160   3.052 -0.5008 -0.5556  0.0931
 1035SOL     OW 3347   1.246   2.095   0.215  0.1555  0.5917  0.0982
 1035SOL    HW1 3348   1.208   2.156   0.152 -2.1114 -0.0656  0.7317
 1035SOL    HW2 3349   1.329   2.069   0.176 -0.1131  1.9613 -1.4937
 1036SOL     OW 3350   0.236   0.506   2.283  0.6012 -0.2035  0.0788
 1036SOL    HW1 3351   0.197   0.578   2.332  0.1894 -0.2840 -0.1257
 1036SOL    HW2 3352   0.200   0.514   2.194 -0.4609 -1.4029  0.3673
 1037SOL     OW 3353   3.514   2.662   0.362 -0.0258 -0.0383  0.2113
 1037SOL    HW1 3354   3.528   2.588   0.422  1.0017 -0.1144 -0.1210
 1037SOL    HW2 3355   3.495   2.621   0.278  0.2239  0.0796  0.0988
 1038SOL     OW 3356   1.131   3.204   1.866  0.4451  0.5726 -0.8085
 1038SOL    HW1 3357   1.042   3.233   1.887  0.7210  1.7411 -1.1433
 1038SOL    HW2 3358   1.160   3.156   1.944 -0.1111  1.0588 -0.2916
 1039SOL     OW 3359   1.892   1.429   0.883  0.4613 -0.1145  0.1096
 1039SOL    HW1 3360   1.930   1.422   0.970 -0.7271  0.5231  0.6948
 1039SOL    HW2 3361   1.858   1.519   0.878 -0.0755 -0.3517 -0.7527
 1040SOL     OW 3362   0.049   1.673   2.945 -0.2939 -0.2119  0.1073
 1040SOL    HW1 3363  -0.023   1.615   2.969 -1.1752  1.3714  1.5943
 1040SOL    HW2 3364   0.081   1.707   3.029  2.5283 -1.1834 -0.4747
 1041SOL     OW 3365   3.703   2.064   2.129 -0.4194 -0.8805  0.4531
 1041SOL    HW1 3366   3.769   2.122   2.166 -0.6059  1.2953 -2.3059
 1041SOL    HW2 3367   3.749   1.981   2.115  1.6686  0.4058 -0.9010
 1042SOL     OW 3368   0.145   1.925   1.642  0.1203  0.4110  0.5778
 1042SOL    HW1 3369   0.205   2.000   1.634  0.7707  0.2615  3.2731
 1042SOL    HW2 3370   0.149   1.883   1.556  1.9498  1.8475 -0.1184
 1043SOL     OW 3371   4.293   0.645   1.633 -0.0333  0.1253 -0.4808
 1043SOL    HW1 3372   4.291   0.581   1.562  0.4004  1.0005 -1.3005
 1043SOL    HW2 3373   4.385   0.670   1.640 -0.2389  0.8403 -0.3370
 1044SOL     OW 3374   3.486   0.902   1.455 -0.4557 -0.1958 -0.3701
 1044SOL    HW1 3375   3.399   0.939   1.474  0.2053  1.3259 -0.1836
 1044SOL    HW2 3376   3.524   0.885   1.541  0.3820  1.5277 -0.3451
 1045SOL     OW 3377   0.715   0.116   2.265  0.3216 -0.0606  0.1643
 1045SOL    HW1 3378   0.710   0.175   2.189 -1.2635 -0.7179 -0.2709
 1045SOL    HW2 3379   0.730   0.174   2.339  1.7343  0.6124 -0.5897
 1046SOL     OW 3380   1.749   0.395   2.798 -0.4707  0.2131 -0.0922
 1046SOL    HW1 3381   1.784   0.307   2.784 -0.2144  0.5131 -1.5348
 1046SOL    HW2 3382   1.807   0.453   2.748 -1.1282  1.0994  0.1365
 1047SOL     OW 3383   2.190   2.624   1.125 -0.6398 -0.1089  0.5464
 1047SOL    HW1 3384   2.105   2.588   1.149  0.1936 -2.7173 -0.0975
 1047SOL    HW2 3385   2.236   2.634   1.208 -0.2518 -2.4204  0.6781
 1048SOL     OW 3386   4.068   1.383   1.103 -0.4213 -0.1684 -0.4300
 1048SOL    HW1 3387   4.143   1.345   1.056  0.1150 -0.0701  0.3171
 1048SOL    HW2 3388   4.108   1.445   1.165 -1.1217 -0.1204 -0.0148
 1049SOL     OW 3389   0.994   3.690   2.526  0.4035  0.4185 -0.3238
 1049SOL    HW1 3390   1.069   3.632   2.509 -1.4640 -1.8567 -1.3607
 1049SOL    HW2 3391   0.983   3.739   2.444 -0.0517 -0.2597 -0.6771
 1050SOL     OW 3392   2.142   2.610   1.567  0.4938  0.5979  0.0582
 1050SOL    HW1 3393   2.162   2.524   1.603 -0.1162  0.4758  0.1228
 1050SOL    HW2 3394   2.087   2.592   1.491 -0.8361  0.9802  0.8950
 1051SOL     OW 3395   3.220   1.037   0.882 -0.1070  0.5982  0.4760
 1051SOL    HW1 3396   3.310   1.068   0.891  0.0942 -0.0857  0.9005
 1051SOL    HW2 3397   3.169   1.116   0.867  0.4505  1.0849  1.0981
 1052SOL     OW 3398   1.204   3.797   3.046  0.1344  0.2315  0.1988
 1052SOL    HW1 3399   1.180   3.837   2.962  0.7643  1.6630  0.6724
 1052SOL    HW2 3400   1.275   3.853   3.080  1.1198 -1.3500  0.8633
 1053SOL     OW 3401   4.141   2.870   0.437 -0.5749  0.5327  0.6439
 1053SOL    HW1 3402   4.052   2.860   0.469 -0.0096 -0.0945  2.1201
 1053SOL    HW2 3403   4.152   2.799   0.373 -1.1765  0.7269  0.3224
 1054SOL     OW 3404   2.505   2.440   2.891 -0.0651 -0.4594 -0.2910
 1054SOL    HW1 3405   2.409   2.434   2.884 -0.0922 -0.0752 -0.2800
 1054SOL    HW2 3406   2.521   2.457   2.984 -0.0844  1.1292 -0.5550
 1055SOL     OW 3407   2.267   2.043   2.074 -0.1223 -0.6544 -0.4027
 1055SOL    HW1 3408   2.290   2.086   1.992 -1.4558 -0.6135 -0.7844
 1055SOL    HW2 3409   2.332   1.973   2.083  1.2460  0.5725 -0.4536
 1056SOL     OW 3410   1.120   2.272   2.693  0.1132 -0.6004 -0.0831
 1056SOL    HW1 3411   1.056   2.244   2.758 -1.6825 -0.7132 -1.7708
 1056SOL    HW2 3412   1.112   2.367   2.692  0.7070 -0.5422  0.3875
 1057SOL     OW 3413   0.310   0.165   2.926 -0.1524 -0.5552 -0.4145
 1057SOL    HW1 3414   0.312   0.150   3.021 -0.3136  2.5486  0.1850
 1057SOL    HW2 3415   0.220   0.144   2.901 -0.2918 -0.7900  0.2529
 1058SOL     OW 3416   0.371   0.169   1.769 -0.3434  0.4899 -0.0859
 1058SOL    HW1 3417   0.381   0.250   1.818  0.5724 -0.5129  1.4777
 1058SOL    HW2 3418   0.373   0.196   1.677  2.3224  2.0479  0.3090
 1059SOL     OW 3419   3.078   0.581   1.050  0.2223 -0.7047 -0.6504
 1059SOL    HW1 3420   3.118   0.647   0.993  0.8535 -0.9144 -0.4637
 1059SOL    HW2 3421   2.985   0.583   1.028  0.4338 -0.6948 -1.6021
 1060SOL     OW 3422   2.143   1.755   1.892  0.3531 -0.4321 -0.3593
 1060SOL    HW1 3423   2.196   1.677   1.909  0.0756 -0.8866 -1.5181
 1060SOL    HW2 3424   2.183   1.795   1.814 -0.0382  0.1042 -0.2911
 1061SOL     OW 3425   1.818   1.081   2.516 -0.6262  0.2576  0.3104
 1061SOL    HW1 3426   1.899   1.132   2.516 -0.5338  0.1284  1.0479
 1061SOL    HW2 3427   1.765   1.120   2.447 -0.1362  0.6718  0.1592
 1062SOL     OW 3428   0.872   0.649   1.802  0.5824  0.1643 -0.4336
 1062SOL    HW1 3429   0.903   0.582   1.742  0.1818 -0.1168 -0.3257
 1062SOL    HW2 3430   0.952   0.697   1.827  1.2632 -1.7041  1.2916
 1063SOL     OW 3431   3.156   1.406   0.616  0.1609  0.4356  0.0084
 1063SOL    HW1 3432   3.089   1.339   0.599  3.2376 -2.4737 -1.9252
 1063SOL    HW2 3433   3.127   1.482   0.565 -1.6588 -0.6736 -0.7347
 1064SOL     OW 3434   0.988   3.486   2.280 -0.0535 -0.1444 -0.2131
 1064SOL    HW1 3435   0.899   3.507   2.255  0.8201  1.7963 -2.0514
 1064SOL    HW2 3436   0.980   3.440   2.364 -2.8006 -1.2361 -0.9927
 1065SOL     OW 3437   3.770   2.925   2.604 -0.1180  0.1725 -0.1533
 1065SOL    HW1 3438   3.830   2.992   2.573 -0.5285  0.7955  0.3592
 1065SOL    HW2 3439   3.733   2.886   2.525  0.6281  0.0900 -0.4592
 1066SOL     OW 3440   1.878   3.306   0.930 -0.6356 -0.9024  0.1818
 1066SOL    HW1 3441   1.822   3.258   0.869  0.9316 -0.6214 -1.6021
 1066SOL    HW2 3442   1.822   3.328   1.004 -2.6751 -1.1418 -1.2349
 1067SOL     OW 3443   0.172   4.116   2.098  0.4395 -0.2302 -0.4929
 1067SOL    HW1 3444   0.088   4.123   2.052  0.2803 -0.3405 -0.2222
 1067SOL    HW2 3445   0.223   4.190   2.066 -0.7183  1.4549  1.3383
 1068SOL     OW 3446   3.145   0.652   0.521  0.0680 -0.1418  0.1244
 1068SOL    HW1 3447   3.081   0.586   0.544  1.4280 -1.8458 -0.7440
 1068SOL    HW2 3448   3.178   0.684   0.606 -0.8851 -0.2489  0.5480
 1069SOL     OW 3449   3.378   0.306   0.376  0.0590 -0.5272 -0.2546
 1069SOL    HW1 3450   3.339   0.323   0.291  1.6390  0.9953 -0.7324
 1069SOL    HW2 3451   3.305   0.279   0.431 -1.2997  0.2248 -1.6149
 1070SOL     OW 3452   3.846   1.979   1.795 -0.0990  0.0263 -0.3473
 1070SOL    HW1 3453   3.869   2.057   1.745  0.3442 -0.9170 -1.6814
 1070SOL    HW2 3454   3.752   1.969   1.783 -0.9462  2.3525  2.8732
 1071SOL     OW 3455   4.199   3.034   0.949 -0.5122  0.0940  0.5530
 1071SOL    HW1 3456   4.185   2.948   0.909 -1.3749  1.0670 -1.3974
 1071SOL    HW2 3457   4.159   3.026   1.036  1.9707 -2.2964  1.6131
 1072SOL     OW 3458   1.023   0.875   2.905 -0.5999  0.0346  0.2446
 1072SOL    HW1 3459   1.056   0.788   2.884  1.2168  0.7095  0.1090
 1072SOL    HW2 3460   0.955   0.891   2.839 -0.5891 -1.0739 -0.0530
 1073SOL     OW 3461   2.064   1.229   0.259  0.2072  0.9825 -0.4977
 1073SOL    HW1 3462   2.117   1.208   0.336  2.6279  1.0118 -2.0374
 1073SOL    HW2 3463   2.018   1.310   0.282  0.0503  0.4135  1.2675
 1074SOL     OW 3464   0.334   2.602   0.205 -0.3657  0.5530  0.4208
 1074SOL    HW1 3465   0.422   2.632   0.226  0.3784 -1.3898  0.2317
 1074SOL    HW2 3466   0.330   2.512   0.236 -2.6626  0.9047  1.3836
 1075SOL     OW 3467   2.941   0.584   2.036  0.0041 -0.1689 -0.3268
 1075SOL    HW1 3468   2.944   0.488   2.044  0.6860 -0.1516 -0.3293
 1075SOL    HW2 3469   2.997   0.603   1.960  0.9572  0.3249  0.4772
 1076SOL     OW 3470   1.776   3.599   0.307  0.0965  0.4550  0.0346
 1076SOL    HW1 3471   1.751   3.691   0.307 -0.7817  0.2359  0.8866
 1076SOL    HW2 3472   1.702   3.554   0.349  0.7008 -0.5812  0.0277
 1077SOL     OW 3473   0.027   2.767   2.374 -0.0897 -0.0850  0.0416
 1077SOL    HW1 3474   0.111   2.722   2.363 -0.2704 -0.2587 -0.6730
 1077SOL    HW2 3475  -0.010   2.729   2.453  0.3210 -0.2978  0.1350
 1078SOL     OW 3476   1.753   3.836   2.282  0.4871 -0.0071 -0.1741
 1078SOL    HW1 3477   1.721   3.794   2.202 -1.7078 -0.2649  0.7915
 1078SOL    HW2 3478   1.833   3.788   2.303  0.0922 -1.1780 -1.1858
 1079SOL     OW 3479   3.954   2.179   1.605  0.1009 -0.6669  0.0456
 1079SOL    HW1 3480   4.032   2.200   1.554 -1.1590 -0.5254 -1.9077
 1079SOL    HW2 3481   3.900   2.258   1.601  0.0709 -0.5354  1.9045
 1080SOL     OW 3482   0.426   1.192   0.089  0.4017 -0.4015 -0.0032
 1080SOL    HW1 3483   0.512   1.233   0.097 -0.3929  1.0048  2.7372
 1080SOL    HW2 3484   0.388   1.230   0.010  1.5852  0.4086 -0.2056
 1081SOL     OW 3485   0.127   0.376   1.633  0.2194 -0.3753 -0.0390
 1081SOL    HW1 3486   0.183   0.370   1.556  0.1580 -0.7221 -0.0585
 1081SOL    HW2 3487   0.040   0.393   1.599  0.0596 -1.2390 -0.0975
 1082SOL     OW 3488   4.275   1.931   2.741  0.0960 -0.0602 -0.2098
 1082SOL    HW1 3489   4.298   1.841   2.719 -0.8837 -0.7762  1.4183
 1082SOL    HW2 3490   4.358   1.976   2.750  0.6885 -1.2356  0.4985
 1083SOL     OW 3491   0.583   2.351   1.681 -0.2391  0.2146 -0.1394
 1083SOL    HW1 3492   0.594   2.441   1.713  0.1050  0.2827 -0.4347
 1083SOL    HW2 3493   0.572   2.361   1.586 -0.0687 -0.0642 -0.1892
 1084SOL     OW 3494   3.987   0.511   0.614  0.1365 -0.3511 -0.1445
 1084SOL    HW1 3495   4.060   0.531   0.555  0.1009 -0.1420 -0.1196
 1084SOL    HW2 3496   4.025   0.456   0.682  0.3010 -0.1322 -0.0572
 1085SOL     OW 3497   3.122   2.193   0.410  0.0368  0.0083  0.9511
 1085SOL    HW1 3498   3.116   2.209   0.504  0.5234 -0.4173  1.0640
 1085SOL    HW2 3499   3.123   2.097   0.402  0.3659  0.0400  0.5432
 1086SOL     OW 3500   1.537   0.920   2.674 -0.3616 -0.1643 -0.0422
 1086SOL    HW1 3501   1.489   0.895   2.595 -0.6148 -0.0490  0.0756
 1086SOL    HW2 3502   1.624   0.881   2.662 -0.9742 -1.7618  0.4958
 1087SOL     OW 3503   1.287   2.500   0.655 -0.1170 -0.2868  0.1533
 1087SOL    HW1 3504   1.289   2.486   0.561  0.5997 -1.2427  0.2856
 1087SOL    HW2 3505   1.195   2.517   0.676 -0.2152  0.3268 -0.7621
 1088SOL     OW 3506   1.117   3.133   2.863  0.5112 -0.3487 -0.2564
 1088SOL    HW1 3507   1.048   3.083   2.822  1.4184 -1.1072 -0.9002
 1088SOL    HW2 3508   1.120   3.101   2.953 -1.2117  1.0348  0.3474
 1089SOL     OW 3509   1.234   1.550   3.038 -0.1943  0.6097 -0.0409
 1089SOL    HW1 3510   1.146   1.564   3.074 -0.1981  0.0431  0.1766
 1089SOL    HW2 3511   1.219   1.508   2.954 -0.1206  0.1606  0.1682
 1090SOL     OW 3512   3.756   2.753   2.318 -0.4999  0.2149 -0.0317
 1090SOL    HW1 3513   3.726   2.665   2.299  0.3414 -0.2654  0.7629
 1090SOL    HW2 3514   3.680   2.809   2.303 -1.1987 -0.7085  0.0015
 1091SOL     OW 3515   2.410   1.034   1.592  0.4443 -0.1875 -0.1106
 1091SOL    HW1 3516   2.378   1.044   1.503  0.1096 -2.5003 -0.3108
 1091SOL    HW2 3517   2.348   0.974   1.633  1.4103 -0.3096  1.2412
 1092SOL     OW 3518   3.469   2.514   3.048  0.4467  0.4053  0.1629
 1092SOL    HW1 3519   3.429   2.450   2.990 -0.0074  2.2626 -1.7174
 1092SOL    HW2 3520   3.562   2.511   3.027  0.6959 -0.7495  1.2921
 1093SOL     OW 3521   3.274   2.254   1.258  0.1271  0.4265  0.4337
 1093SOL    HW1 3522   3.285   2.300   1.341 -1.1101  1.2696  0.1590
 1093SOL    HW2 3523   3.252   2.322   1.195 -0.4030 -0.3736 -0.2723
 1094SOL     OW 3524   4.193   0.545   0.912  0.0214  0.0895  0.0291
 1094SOL    HW1 3525   4.119   0.544   0.973  1.1987 -1.2915  1.5066
 1094SOL    HW2 3526   4.180   0.468   0.857 -1.0364  1.3292 -1.5523
 1095SOL     OW 3527   0.506   1.342   2.708  0.4663 -0.1567  0.0130
 1095SOL    HW1 3528   0.595   1.337   2.743 -0.0251 -1.3384  1.1803
 1095SOL    HW2 3529   0.457   1.276   2.757 -1.3375  1.2631  0.2043
 1096SOL     OW 3530   3.230   2.444   1.070 -0.5769 -0.2697 -0.3044
 1096SOL    HW1 3531   3.196   2.418   0.984  1.4689 -0.7941 -1.0024
 1096SOL    HW2 3532   3.237   2.540   1.065 -1.1733 -0.2248 -0.4186
 1097SOL     OW 3533   3.129   0.586   1.324  0.1095 -0.0942  0.3073
 1097SOL    HW1 3534   3.102   0.572   1.233 -0.2594  0.7260  0.2834
 1097SOL    HW2 3535   3.205   0.645   1.317  1.4971 -1.7732  0.4174
 1098SOL     OW 3536   3.617   2.228   0.805  0.4449  0.0277 -0.0989
 1098SOL    HW1 3537   3.583   2.266   0.886 -0.6454 -0.1464 -0.4601
 1098SOL    HW2 3538   3.693   2.282   0.783  0.5669  0.2636  0.8688
 1099SOL     OW 3539   1.894   1.023   0.519  0.6284  0.2381 -0.4360
 1099SOL    HW1 3540   1.876   0.936   0.553 -1.0912  0.6204 -0.2361
 1099SOL    HW2 3541   1.882   1.015   0.424  1.0229  0.1340 -0.4763
 1100SOL     OW 3542   0.405   1.862   2.355  0.3221 -0.2971 -0.0318
 1100SOL    HW1 3543   0.454   1.784   2.330 -1.1225 -0.9618 -0.9072
 1100SOL    HW2 3544   0.468   1.934   2.345  1.4574 -1.2425  0.0780
 1101SOL     OW 3545   0.067   1.266   1.329 -0.8385 -0.2235 -0.7646
 1101SOL    HW1 3546   0.071   1.315   1.411  1.2685 -2.1444  0.3637
 1101SOL    HW2 3547  -0.024   1.237   1.323 -0.7875 -1.0304  1.5190
 1102SOL     OW 3548   0.246   2.701   3.014 -0.1238  0.4052  0.0099
 1102SOL    HW1 3549   0.236   2.692   2.920  2.5675 -0.0724 -0.3202
 1102SOL    HW2 3550   0.160   2.680   3.050 -0.5532 -2.0728 -2.1940
 1103SOL     OW 3551   3.002   2.446   2.686 -0.0767  0.2253  0.2433
 1103SOL    HW1 3552   2.968   2.442   2.776 -0.0607  1.7764  0.3491
 1103SOL    HW2 3553   2.925   2.431   2.631 -0.3990  0.8463  0.5138
 1104SOL     OW 3554   0.315   0.940   0.762  0.2089  0.3006 -0.1670
 1104SOL    HW1 3555   0.302   0.986   0.679  1.1863  2.5304  0.8402
 1104SOL    HW2 3556   0.358   0.858   0.737  1.1246  1.2358 -1.8315
 1105SOL     OW 3557   0.473   2.249   1.214  0.1453  0.2754  0.4824
 1105SOL    HW1 3558   0.432   2.182   1.269  0.1183 -0.9598 -0.9599
 1105SOL    HW2 3559   0.512   2.311   1.276  1.2220 -1.7245  1.9335
 1106SOL     OW 3560   0.049   2.693   0.209  0.1379  0.6122 -0.8905
 1106SOL    HW1 3561   0.074   2.760   0.272 -1.8160  0.3826  0.2302
 1106SOL    HW2 3562   0.129   2.645   0.191  0.6471  0.2606  1.9639
 1107SOL     OW 3563   4.190   2.662   0.151 -0.2471  0.4620  0.6966
 1107SOL    HW1 3564   4.285   2.662   0.159  0.1744 -0.6970 -2.7807
 1107SOL    HW2 3565   4.168   2.754   0.133  0.3318  0.5610  0.4578
 1108SOL     OW 3566   4.187   1.197   0.478 -0.1835  0.0162  0.5272
 1108SOL    HW1 3567   4.231   1.278   0.453  2.9451 -1.2407  1.4499
 1108SOL    HW2 3568   4.181   1.147   0.397 -1.6509  0.9128  0.0533
 1109SOL     OW 3569   2.755   0.332   0.627 -0.0267  0.2587 -0.5407
 1109SOL    HW1 3570   2.745   0.265   0.695  1.0106 -1.0297 -1.5839
 1109SOL    HW2 3571   2.683   0.315   0.567 -0.1808  0.5523 -0.4393
 1110SOL     OW 3572   3.201   0.901   1.843 -0.3014 -0.3811  0.1604
 1110SOL    HW1 3573   3.131   0.836   1.834 -0.5413  0.0836 -1.8854
 1110SOL    HW2 3574   3.281   0.849   1.846 -0.6181 -0.8492  0.6582
 1111SOL     OW 3575   3.116   3.341   0.322 -0.1870  0.5042  0.3398
 1111SOL    HW1 3576   3.117   3.355   0.228 -0.4717  1.0803  0.4176
 1111SOL    HW2 3577   3.126   3.428   0.360  1.8626  0.1131  0.8464
 1112SOL     OW 3578   1.498   1.801   0.350 -0.2255 -0.1612 -0.7400
 1112SOL    HW1 3579   1.438   1.750   0.295 -0.5515 -3.2662  2.1413
 1112SOL    HW2 3580   1.441   1.863   0.395 -1.6949 -3.3594  2.2966
 1113SOL     OW 3581   0.300   3.642   0.292  0.0595 -0.0609 -0.0726
 1113SOL    HW1 3582   0.372   3.614   0.235 -0.2580  2.5625 -1.9736
 1113SOL    HW2 3583   0.302   3.582   0.366  2.1735 -2.0347 -1.6148
 1114SOL     OW 3584   2.372   1.817   1.341 -0.2287 -0.4643 -0.4769
 1114SOL    HW1 3585   2.342   1.733   1.376  0.9272 -0.3036  0.9818
 1114SOL    HW2 3586   2.305   1.879   1.370  0.0403 -0.5459  0.3474
 1115SOL     OW 3587   2.456   1.805   2.086  0.2372  0.1943 -0.0218
 1115SOL    HW1 3588   2.480   1.801   1.994 -0.8409 -0.9380 -0.2859
 1115SOL    HW2 3589   2.497   1.727   2.125 -0.7400 -0.2812  0.0788
 1116SOL     OW 3590   2.869   3.575   0.465  0.3073  0.2379 -0.2998
 1116SOL    HW1 3591   2.910   3.576   0.379  0.6569 -0.1782 -0.1426
 1116SOL    HW2 3592   2.811   3.498   0.463  0.9733 -0.2886  0.1303
 1117SOL     OW 3593   2.559   3.888   2.127  0.3807 -0.2148 -0.0233
 1117SOL    HW1 3594   2.517   3.807   2.155  0.1901 -0.0591  0.1403
 1117SOL    HW2 3595   2.653   3.871   2.137  0.3014  0.1918  1.6899
 1118SOL     OW 3596   2.816   2.865   2.024  0.1267  0.7042 -0.3372
 1118SOL    HW1 3597   2.794   2.867   1.931  1.7626  2.3348 -0.7371
 1118SOL    HW2 3598   2.744   2.912   2.066 -0.4681  0.2244 -0.7929
 1119SOL     OW 3599   4.015   0.252   3.074  0.1064 -0.2903  0.6152
 1119SOL    HW1 3600   4.074   0.304   3.019 -1.8123  0.6858 -0.6194
 1119SOL    HW2 3601   3.972   0.193   3.013 -0.9046 -0.2984  1.3182
 1120SOL     OW 3602   1.732   2.021   2.165 -0.2292  0.3688 -0.0273
 1120SOL    HW1 3603   1.661   2.078   2.194  0.2715  0.3759  1.2554
 1120SOL    HW2 3604   1.804   2.040   2.225  1.3722  1.3839 -2.1127
 1121SOL     OW 3605   2.637   1.458   2.594  0.0345 -0.0652  0.1994
 1121SOL    HW1 3606   2.619   1.528   2.532 -0.5035 -0.2952  0.0871
 1121SOL    HW2 3607   2.717   1.417   2.562 -0.7537 -0.7884 -0.8928
 1122SOL     OW 3608   0.298   0.046   0.212 -0.2726 -0.7589 -0.4215
 1122SOL    HW1 3609   0.332  -0.014   0.279  0.0967 -0.0009  0.0813
 1122SOL    HW2 3610   0.261  -0.012   0.145  0.8503 -1.5798 -0.3672
 1123SOL     OW 3611   3.015   3.134   2.539  0.0231  0.0138 -0.0732
 1123SOL    HW1 3612   3.010   3.169   2.628  2.0791 -0.1023  0.1485
 1123SOL    HW2 3613   3.036   3.041   2.551  0.2069 -0.0225 -0.6733
 1124SOL     OW 3614   0.427   1.070   1.295  0.1287 -0.9004 -0.3573
 1124SOL    HW1 3615   0.366   1.074   1.369  1.9365 -0.1823  1.1602
 1124SOL    HW2 3616   0.440   1.161   1.270  1.0673 -0.9912 -0.2242
 1125SOL     OW 3617   2.760   0.920   1.036 -0.1676 -0.2203 -0.1142
 1125SOL    HW1 3618   2.698   0.876   0.978 -1.9669  0.9741  0.8041
 1125SOL    HW2 3619   2.715   0.924   1.121  1.2258  0.5658  0.6261
 1126SOL     OW 3620   2.746   2.920   0.734  0.2338  0.2792 -0.9228
 1126SOL    HW1 3621   2.838   2.922   0.709  0.4909 -0.4056 -0.1041
 1126SOL    HW2 3622   2.703   2.867   0.667  0.9226 -1.6194  0.0788
 1127SOL     OW 3623   0.346   4.070   1.738  0.4197 -0.0405  0.4332
 1127SOL    HW1 3624   0.303   4.051   1.654 -0.7768 -0.0442  1.0270
 1127SOL    HW2 3625   0.359   3.984   1.778 -2.1828  0.0905  1.7524
 1128SOL     OW 3626   2.879   3.419   2.843 -0.0961 -0.7802 -0.2285
 1128SOL    HW1 3627   2.877   3.460   2.756 -0.0760  0.1216  0.1882
 1128SOL    HW2 3628   2.799   3.365   2.845 -0.9757  0.4742 -0.2062
 1129SOL     OW 3629   1.511   1.094   2.211  0.3496 -0.1395  0.0440
 1129SOL    HW1 3630   1.581   1.065   2.153 -0.2486  0.0384 -0.7736
 1129SOL    HW2 3631   1.466   1.014   2.238  1.2530 -0.3171  1.0937
 1130SOL     OW 3632   0.589   2.462   2.810 -0.8670  0.2657 -0.5999
 1130SOL    HW1 3633   0.600   2.367   2.819  0.6362  0.3725 -1.0094
 1130SOL    HW2 3634   0.676   2.498   2.828 -1.1318  1.4805 -1.6135
 1131SOL     OW 3635   1.354   2.231   1.049 -0.2320  0.2569 -0.6222
 1131SOL    HW1 3636   1.348   2.136   1.059 -2.5230  0.4995  0.9213
 1131SOL    HW2 3637   1.421   2.243   0.981  1.9988 -2.3266  0.9042
 1132SOL     OW 3638   4.120   4.329   2.298  0.4145  0.0453  0.1114
 1132SOL    HW1 3639   4.129   4.333   2.394 -0.3775 -0.9415  0.2453
 1132SOL    HW2 3640   4.079   4.413   2.276 -1.4537 -0.5862  0.9338
 1133SOL     OW 3641   1.323   1.251   1.550  0.1332 -0.7509 -0.2233
 1133SOL    HW1 3642   1.304   1.310   1.623  0.1470 -1.8179  0.6712
 1133SOL    HW2 3643   1.236   1.221   1.522  0.1520 -0.6779 -0.3580
 1134SOL     OW 3644   2.834   1.512   1.512  0.0824 -0.1669 -0.4813
 1134SOL    HW1 3645   2.750   1.558   1.515  0.8352  1.2558 -0.6961
 1134SOL    HW2 3646   2.811   1.422   1.489 -1.3523  0.2963 -0.9415
 1135SOL     OW 3647   0.967   3.149   0.314 -0.4892  0.0028 -0.0748
 1135SOL    HW1 3648   0.881   3.187   0.330  0.1511  1.0461  1.0767
 1135SOL    HW2 3649   1.025   3.225   0.307  0.2209 -0.6379 -1.7927
 1136SOL     OW 3650   0.721   3.221   0.330 -0.3099 -0.0965  0.1599
 1136SOL    HW1 3651   0.696   3.306   0.293  0.1265  0.4353  1.0467
 1136SOL    HW2 3652   0.638   3.179   0.352 -0.5212  0.2310  0.0017
 1137SOL     OW 3653   2.756   1.377   1.087  0.2319 -0.3504 -0.8108
 1137SOL    HW1 3654   2.799   1.292   1.094 -0.6038 -0.6716  0.9738
 1137SOL    HW2 3655   2.664   1.360   1.109  0.5023  1.3661  2.0882
 1138SOL     OW 3656   1.641   4.308   2.064 -0.0651  0.0026  0.4092
 1138SOL    HW1 3657   1.658   4.225   2.110 -0.2724 -0.3236 -0.0876
 1138SOL    HW2 3658   1.716   4.319   2.006 -0.6276 -0.4907 -0.4389
 1139SOL     OW 3659   0.166   0.824   1.076 -0.2369  0.1104  0.2539
 1139SOL    HW1 3660   0.242   0.771   1.098 -0.2789  1.2360  3.7505
 1139SOL    HW2 3661   0.203   0.906   1.043  0.1548  0.5588  1.7062
 1140SOL     OW 3662   0.986   1.424   1.021 -0.0045  0.2067 -0.7816
 1140SOL    HW1 3663   1.012   1.474   1.099 -1.3571  2.1523 -1.5020
 1140SOL    HW2 3664   0.921   1.480   0.978  0.5102 -0.9424 -3.1726
 1141SOL     OW 3665   0.466   3.054   0.709  0.2311 -0.6500  0.3872
 1141SOL    HW1 3666   0.381   3.097   0.717  0.3881 -0.2750  0.0627
 1141SOL    HW2 3667   0.527   3.124   0.687  0.4167 -1.1082 -0.6135
 1142SOL     OW 3668   3.728   0.537   0.960 -0.3908 -0.1546  0.3286
 1142SOL    HW1 3669   3.709   0.593   0.885  3.0277 -0.6691 -1.1102
 1142SOL    HW2 3670   3.670   0.462   0.949  1.1503 -1.0384 -2.9364
 1143SOL     OW 3671   3.091   3.365   2.447 -0.0299  0.2090 -0.1251
 1143SOL    HW1 3672   3.089   3.271   2.461 -1.7177  0.3386  0.8294
 1143SOL    HW2 3673   3.173   3.381   2.400  0.0172 -1.7815 -0.8142
 1144SOL     OW 3674   1.043   2.395   1.862 -0.1874 -0.2088  0.0560
 1144SOL    HW1 3675   0.980   2.418   1.931 -0.1728  0.0488 -0.0165
 1144SOL    HW2 3676   1.114   2.352   1.909  0.3023  0.8731  0.3471
 1145SOL     OW 3677   0.261   3.171   1.402  0.4988 -0.0728 -0.3779
 1145SOL    HW1 3678   0.194   3.154   1.468  0.8836 -1.1646 -0.2541
 1145SOL    HW2 3679   0.213   3.184   1.321  0.0175  1.3026  0.0973
 1146SOL     OW 3680   0.957   2.386   0.318 -0.4893 -0.2993  0.1117
 1146SOL    HW1 3681   0.875   2.418   0.281  0.0187  0.0009 -0.7751
 1146SOL    HW2 3682   1.007   2.464   0.339 -0.8348 -0.4572  1.6360
 1147SOL     OW 3683   0.441   1.848   2.893  0.4047  0.2103  0.5731
 1147SOL    HW1 3684   0.433   1.922   2.833  0.2350  0.3356  0.7495
 1147SOL    HW2 3685   0.481   1.779   2.840 -0.2100  0.1515  0.1687
 1148SOL     OW 3686   4.039   0.194   2.194 -0.4618 -0.2499  0.6640
 1148SOL    HW1 3687   4.053   0.175   2.101  1.3630 -3.0602  1.4145
 1148SOL    HW2 3688   4.065   0.286   2.203 -1.4283  0.3353 -1.6886
 1149SOL     OW 3689   1.572   1.329   1.500  0.3487  0.4262 -0.6071
 1149SOL    HW1 3690   1.623   1.248   1.508  1.0515  1.0562  2.1736
 1149SOL    HW2 3691   1.483   1.304   1.524 -0.4549 -0.3228 -3.8856
 1150SOL     OW 3692   0.788   1.656   2.242 -0.1394  0.6863 -0.4358
 1150SOL    HW1 3693   0.794   1.580   2.185  0.9682 -0.8654  1.5925
 1150SOL    HW2 3694   0.699   1.689   2.229 -0.8511 -1.3154 -0.9614
 1151SOL     OW 3695   0.888   2.502   2.993  0.0946  0.3220 -0.2610
 1151SOL    HW1 3696   0.949   2.485   3.064  1.1755  3.1664 -0.3877
 1151SOL    HW2 3697   0.806   2.527   3.037  0.2730  0.5281 -0.0495
 1152SOL     OW 3698   0.859   3.104   0.074 -0.1946 -0.3020 -0.1304
 1152SOL    HW1 3699   0.776   3.058   0.069  1.2583 -3.1863  0.3256
 1152SOL    HW2 3700   0.892   3.084   0.162  1.6728 -0.5504 -0.8476
 1153SOL     OW 3701   4.029   1.688   2.345 -0.0237 -0.6315 -0.2111
 1153SOL    HW1 3702   4.090   1.686   2.271 -2.1908 -0.1159 -2.1384
 1153SOL    HW2 3703   4.024   1.597   2.374  0.8798 -0.8462 -0.6920
 1154SOL     OW 3704   1.473   3.158   0.614  0.2936 -0.7202  0.1970
 1154SOL    HW1 3705   1.410   3.141   0.544 -0.7941 -1.1773  1.2489
 1154SOL    HW2 3706   1.420   3.190   0.686  0.9684 -2.8182  1.7357
 1155SOL     OW 3707   1.140   1.104   3.021  0.2228 -0.0072  0.2104
 1155SOL    HW1 3708   1.078   1.039   2.990 -0.1869  0.0491  0.9025
 1155SOL    HW2 3709   1.226   1.069   2.997 -0.0056 -0.7058  0.4043
 1156SOL     OW 3710   3.498   1.956   0.898  0.3357  0.4849  1.0154
 1156SOL    HW1 3711   3.533   2.045   0.887 -0.2146  0.7364  1.2605
 1156SOL    HW2 3712   3.573   1.904   0.924  0.3604  1.2028  2.4844
 1157SOL     OW 3713   3.413   0.588   2.255 -0.0600  0.2135 -0.0325
 1157SOL    HW1 3714   3.436   0.544   2.173  1.5904  1.1668 -0.1276
 1157SOL    HW2 3715   3.371   0.669   2.227 -1.6740 -0.5328  0.1250
 1158SOL     OW 3716   2.204   3.636   0.652  0.3115 -0.2140 -0.0788
 1158SOL    HW1 3717   2.237   3.570   0.590 -2.0293 -0.0832 -1.5753
 1158SOL    HW2 3718   2.148   3.587   0.712 -2.0517  0.3809 -1.6567
 1159SOL     OW 3719   3.346   1.369   2.345  0.4675  0.2965  0.0035
 1159SOL    HW1 3720   3.371   1.322   2.265 -1.2933  0.1181 -0.4831
 1159SOL    HW2 3721   3.420   1.356   2.404  1.9301  0.6495 -1.6746
 1160SOL     OW 3722   1.652   1.731   2.937 -0.6516 -0.4877 -0.3491
 1160SOL    HW1 3723   1.669   1.800   2.873  0.3107  0.3350  0.7501
 1160SOL    HW2 3724   1.680   1.650   2.893  0.4327  0.1193 -0.8209
 1161SOL     OW 3725   3.355   2.870   0.200  0.6289 -0.4274  0.1544
 1161SOL    HW1 3726   3.389   2.874   0.289  1.2674 -0.4678 -0.0786
 1161SOL    HW2 3727   3.384   2.951   0.160  3.7899 -2.0330 -1.1812
 1162SOL     OW 3728   4.054   2.901   0.071  0.0463  0.2517 -0.1504
 1162SOL    HW1 3729   3.977   2.928   0.121  0.6564  0.8262  0.4982
 1162SOL    HW2 3730   4.036   2.930  -0.018  0.3302  2.1168  0.3661
 1163SOL     OW 3731   2.791   0.235   0.998  0.2063 -0.3176 -0.7707
 1163SOL    HW1 3732   2.885   0.241   1.016  0.1012 -0.8617  0.0141
 1163SOL    HW2 3733   2.751   0.240   1.085 -0.4909 -0.0402 -1.1095
 1164SOL     OW 3734   1.943   2.874   0.841  0.0238  0.1864  0.1414
 1164SOL    HW1 3735   2.035   2.874   0.866 -0.1093 -0.1808  0.6608
 1164SOL    HW2 3736   1.911   2.788   0.868 -0.6198  0.5382  0.5326
 1165SOL     OW 3737   3.104   3.829   2.298  0.3199 -0.1868 -0.0325
 1165SOL    HW1 3738   3.038   3.763   2.277  1.4427 -1.4050  0.1553
 1165SOL    HW2 3739   3.177   3.811   2.237  0.8335  0.5936  0.3261
 1166SOL     OW 3740   0.319   1.594  -0.003 -0.0390 -0.4401 -0.0552
 1166SOL    HW1 3741   0.391   1.656   0.013  0.8055 -1.2997 -0.3767
 1166SOL    HW2 3742   0.242   1.637   0.032  0.8663 -0.0860  1.6465
 1167SOL     OW 3743   1.273   3.641   2.577  0.4826  0.3969 -0.1052
 1167SOL    HW1 3744   1.294   3.562   2.527  0.2216 -0.5009  1.1541
 1167SOL    HW2 3745   1.343   3.648   2.641 -1.1403 -0.7370  1.9483
 1168SOL     OW 3746   1.079   2.631   0.429  0.0650 -0.6507  0.3164
 1168SOL    HW1 3747   1.075   2.725   0.408  1.1240 -0.7936 -0.6486
 1168SOL    HW2 3748   1.049   2.626   0.520  3.0856  1.0998  1.5897
 1169SOL     OW 3749   3.734   2.430   0.249  0.1025  0.3683 -0.0172
 1169SOL    HW1 3750   3.670   2.403   0.183 -0.4425  0.0210  0.6391
 1169SOL    HW2 3751   3.694   2.406   0.332  1.3240 -0.3705  0.3900
 1170SOL     OW 3752   3.085   0.469   2.952  0.0355 -0.7235 -0.6544
 1170SOL    HW1 3753   3.174   0.505   2.952 -0.0826 -0.4248  0.0460
 1170SOL    HW2 3754   3.078   0.424   2.868  0.6807 -0.3355 -0.9244
 1171SOL     OW 3755   0.445   2.418   1.448 -0.1125  0.0600 -0.2936
 1171SOL    HW1 3756   0.362   2.443   1.407  0.1129 -1.2274 -1.6436
 1171SOL    HW2 3757   0.505   2.490   1.427 -0.6651  0.6067 -0.0211
 1172SOL     OW 3758   3.027   0.237   3.096  0.0920 -0.4998 -0.4106
 1172SOL    HW1 3759   2.995   0.247   3.186 -0.5135 -1.6838 -0.4750
 1172SOL    HW2 3760   3.010   0.322   3.055 -0.8940 -0.3827  0.2094
 1173SOL     OW 3761   0.300   2.540   0.699  0.3121 -0.2758  0.6179
 1173SOL    HW1 3762   0.333   2.459   0.661 -2.2652 -1.2294  0.1992
 1173SOL    HW2 3763   0.341   2.609   0.648  0.8088 -1.3788 -0.5311
 1174SOL     OW 3764   1.183   4.180   1.036  0.1472 -0.7455 -0.0110
 1174SOL    HW1 3765   1.145   4.170   0.949 -0.7275  1.7528  0.0044
 1174SOL    HW2 3766   1.268   4.222   1.021  0.9194 -2.1562  0.2523
 1175SOL     OW 3767   0.761   0.359   2.734 -0.0362  0.1406  0.0583
 1175SOL    HW1 3768   0.689   0.373   2.796 -0.6449  0.5024 -0.7132
 1175SOL    HW2 3769   0.765   0.264   2.723  0.6820  0.0043  1.3406
 1176SOL     OW 3770   2.148   1.682   0.784  0.0933  0.2549 -0.5977
 1176SOL    HW1 3771   2.093   1.748   0.742 -1.2991  1.2562  2.4626
 1176SOL    HW2 3772   2.135   1.602   0.732 -2.0463  1.1911 -1.6010
 1177SOL     OW 3773   0.400   3.019   1.880  0.2196  0.4255  0.1149
 1177SOL    HW1 3774   0.488   3.003   1.914 -0.6772 -0.7246  2.0626
 1177SOL    HW2 3775   0.388   3.113   1.889  0.8581  0.4477  0.8271
 1178SOL     OW 3776   1.187   3.371   0.614 -0.4488 -0.5594 -0.2401
 1178SOL    HW1 3777   1.234   3.442   0.572 -1.2946  0.2531  0.1623
 1178SOL    HW2 3778   1.231   3.359   0.698 -1.3840  0.6944  0.4521
 1179SOL     OW 3779   1.538   1.549   1.826  0.2517 -0.3947  0.5392
 1179SOL    HW1 3780   1.538   1.596   1.909  1.4915 -0.3954  0.5585
 1179SOL    HW2 3781   1.596   1.599   1.769 -2.9469  1.3935 -1.4506
 1180SOL     OW 3782   1.008   1.627   2.427  0.5443  0.2320  0.2775
 1180SOL    HW1 3783   0.985   1.535   2.433 -0.6810  0.6255  2.8403
 1180SOL    HW2 3784   0.945   1.663   2.364  1.6987 -0.7903 -1.5561
 1181SOL     OW 3785   1.542   1.929   1.549  0.4594 -0.1539  0.3303
 1181SOL    HW1 3786   1.454   1.962   1.566  0.3242 -1.4643  2.4500
 1181SOL    HW2 3787   1.554   1.942   1.455 -2.8380 -1.9330 -0.4766
 1182SOL     OW 3788   1.785   4.067   2.139 -0.3925  0.4769  0.1327
 1182SOL    HW1 3789   1.835   4.049   2.060 -1.6081 -0.7097 -0.4126
 1182SOL    HW2 3790   1.788   3.986   2.189  0.0896  1.1108  1.1583
 1183SOL     OW 3791   1.118   1.331   1.876 -0.2768  0.4217 -0.5803
 1183SOL    HW1 3792   1.194   1.284   1.910  0.3470  2.7451  1.5695
 1183SOL    HW2 3793   1.148   1.370   1.794  0.5259  0.5267 -0.2398
 1184SOL     OW 3794   1.547   4.238   0.513  0.6120  0.5669 -0.3439
 1184SOL    HW1 3795   1.573   4.308   0.572  1.3386  0.8553 -0.9836
 1184SOL    HW2 3796   1.621   4.228   0.453 -0.3600  0.7505 -1.6335
 1185SOL     OW 3797   1.378   0.332   0.865  0.2009  0.5497 -0.0119
 1185SOL    HW1 3798   1.391   0.380   0.947  0.5913 -0.7996  0.7614
 1185SOL    HW2 3799   1.308   0.378   0.820  1.1273  2.3306  0.2786
 1186SOL     OW 3800   2.270   4.262   2.011 -0.0445 -0.0446 -0.3419
 1186SOL    HW1 3801   2.325   4.229   2.081 -0.3751  1.1288  0.5117
 1186SOL    HW2 3802   2.217   4.187   1.984  0.3624 -0.6090  0.4088
 1187SOL     OW 3803   2.694   2.675   0.575  0.0362  0.0640  0.1802
 1187SOL    HW1 3804   2.789   2.671   0.564 -0.0888 -0.6602 -0.7836
 1187SOL    HW2 3805   2.659   2.630   0.498 -1.1923  3.0266 -1.1634
 1188SOL     OW 3806   3.541   1.614   2.506 -0.1241 -0.3179 -0.4010
 1188SOL    HW1 3807   3.474   1.565   2.458  1.4376 -1.5299 -1.4554
 1188SOL    HW2 3808   3.610   1.630   2.441  1.3807 -0.6497  1.0528
 1189SOL     OW 3809   3.697   1.803   1.096 -0.0840 -0.1979  0.4193
 1189SOL    HW1 3810   3.759   1.851   1.042 -0.7763  1.1560  0.7833
 1189SOL    HW2 3811   3.733   1.715   1.101  0.8944  0.1025 -0.7994
 1190SOL     OW 3812   0.523   4.340   2.349 -0.1980 -0.3538 -0.4138
 1190SOL    HW1 3813   0.588   4.405   2.321 -0.1449  0.0607  0.6281
 1190SOL    HW2 3814   0.506   4.361   2.441  1.5596 -3.2412  0.6932
 1191SOL     OW 3815   2.926   3.762   2.881  0.7755 -0.2773 -0.1364
 1191SOL    HW1 3816   2.917   3.769   2.786 -0.0116 -0.3476 -0.0756
 1191SOL    HW2 3817   2.983   3.835   2.905  2.6564 -1.4293 -0.8731
 1192SOL     OW 3818   2.811   2.127   2.642  0.1772  0.0332  0.1421
 1192SOL    HW1 3819   2.823   2.132   2.547 -0.0431 -2.6383 -0.1118
 1192SOL    HW2 3820   2.804   2.033   2.660 -0.6659  0.5142  2.7096
 1193SOL     OW 3821   1.676   0.289   0.036 -0.3575  0.3865 -0.0280
 1193SOL    HW1 3822   1.710   0.215   0.086  1.5593  0.0762 -1.6575
 1193SOL    HW2 3823   1.754   0.327  -0.006 -1.3499  3.0342  0.3427
 1194SOL     OW 3824   1.084   2.868   1.842  0.3095  0.2406  0.1734
 1194SOL    HW1 3825   1.152   2.850   1.777 -0.1784  1.7293 -0.7909
 1194SOL    HW2 3826   1.011   2.905   1.792 -0.5997  0.1864  1.4005
 1195SOL     OW 3827   0.249   1.258   2.133 -0.1345 -0.0729  0.2566
 1195SOL    HW1 3828   0.255   1.341   2.180 -0.0208  0.5533 -0.8179
 1195SOL    HW2 3829   0.176   1.212   2.175 -0.8612  1.0028  0.2287
 1196SOL     OW 3830   3.357   1.115   1.857 -0.6195 -0.4637  0.1949
 1196SOL    HW1 3831   3.298   1.050   1.820  0.4947 -1.0555 -0.6147
 1196SOL    HW2 3832   3.338   1.195   1.808  0.1701 -0.9970 -1.0433
 1197SOL     OW 3833   0.478   3.724   1.377 -0.2687  0.6783  0.1444
 1197SOL    HW1 3834   0.517   3.730   1.290 -0.5805  1.6878  0.0626
 1197SOL    HW2 3835   0.479   3.814   1.410 -1.5319  0.5474  0.5803
 1198SOL     OW 3836   1.642   3.433   2.467 -0.5506  0.2036  0.3977
 1198SOL    HW1 3837   1.677   3.519   2.488  0.3359  0.3400 -1.3907
 1198SOL    HW2 3838   1.552   3.449   2.438 -0.3540  0.5473 -0.0241
 1199SOL     OW 3839   2.121   3.718   2.041 -0.7061  0.1567  0.5609
 1199SOL    HW1 3840   2.148   3.626   2.048 -0.1475  0.2338 -0.4261
 1199SOL    HW2 3841   2.057   3.719   1.970 -0.7598  0.5201  0.6126
 1200SOL     OW 3842   1.663   1.680   1.469 -0.4242  0.2163  0.1326
 1200SOL    HW1 3843   1.616   1.756   1.504 -1.2192 -0.0306 -0.3602
 1200SOL    HW2 3844   1.671   1.621   1.544  0.3677  0.8438  0.5673
 1201SOL     OW 3845   2.763   3.726   0.942  0.4538  0.0463 -0.4506
 1201SOL    HW1 3846   2.832   3.666   0.967 -0.0476 -0.3924 -0.1037
 1201SOL    HW2 3847   2.683   3.674   0.947 -0.1966  1.1460  1.4007
 1202SOL     OW 3848   4.224   0.962   1.672  0.7102 -0.0822 -0.3414
 1202SOL    HW1 3849   4.159   1.008   1.619  2.2089 -1.5051 -3.6951
 1202SOL    HW2 3850   4.202   0.869   1.661  1.6479 -0.4666  0.8134
 1203SOL     OW 3851   1.495   3.232   2.807  0.8484 -0.4729  0.2584
 1203SOL    HW1 3852   1.456   3.162   2.860 -1.4092 -2.2110 -3.3336
 1203SOL    HW2 3853   1.545   3.186   2.740  0.7637  1.4324 -1.1732
 1204SOL     OW 3854   2.059   0.896   2.372  0.0870 -0.1072 -0.2400
 1204SOL    HW1 3855   2.080   0.888   2.279  1.9058  0.6862  0.0598
 1204SOL    HW2 3856   1.972   0.936   2.373  0.8862  1.8402 -1.6505
 1205SOL     OW 3857   2.850   0.359   2.359  0.0997  0.4345 -0.4147
 1205SOL    HW1 3858   2.839   0.345   2.265  1.8283  1.3708 -0.7911
 1205SOL    HW2 3859   2.924   0.303   2.382  0.0071  0.6024  0.2907
 1206SOL     OW 3860   0.823   1.448   2.057 -0.3417  0.5635 -0.1190
 1206SOL    HW1 3861   0.910   1.482   2.036  0.3467 -1.0208  0.1024
 1206SOL    HW2 3862   0.777   1.445   1.973  0.6672 -0.9185 -0.6371
 1207SOL     OW 3863   0.746   1.185   2.883  0.3652  0.4209 -0.5282
 1207SOL    HW1 3864   0.789   1.129   2.818  1.3439 -0.2441  0.6433
 1207SOL    HW2 3865   0.703   1.124   2.942 -2.9777  1.0789 -2.0801
 1208SOL     OW 3866   2.750   3.188   2.429 -0.0633 -0.2374 -0.0627
 1208SOL    HW1 3867   2.704   3.106   2.445 -0.2455  0.0639  1.0184
 1208SOL    HW2 3868   2.836   3.176   2.468 -0.0160  0.0129 -0.0853
 1209SOL     OW 3869   2.925   2.344   1.420 -0.2644 -0.4836  0.4101
 1209SOL    HW1 3870   3.007   2.393   1.428  0.2337 -1.3177  0.5967
 1209SOL    HW2 3871   2.931   2.277   1.489 -1.5184  0.0249  1.0246
 1210SOL     OW 3872   1.996   0.670   2.875  0.0908  0.4842 -0.2514
 1210SOL    HW1 3873   2.005   0.759   2.841  2.1014 -0.4156 -2.3464
 1210SOL    HW2 3874   2.075   0.656   2.926  1.8214 -1.2494 -3.1049
 1211SOL     OW 3875   3.912   1.651   1.806  1.1193 -0.0417 -0.4790
 1211SOL    HW1 3876   3.908   1.746   1.811  0.9689 -0.0584 -0.2505
 1211SOL    HW2 3877   4.005   1.631   1.798  1.1883  0.1052 -0.0750
 1212SOL     OW 3878   3.148   1.014   2.640 -0.0148  0.4303 -0.2311
 1212SOL    HW1 3879   3.145   0.921   2.618 -0.7855  0.4045 -0.0463
 1212SOL    HW2 3880   3.231   1.044   2.603  0.7157 -0.5403  0.5576
 1213SOL     OW 3881   1.592   2.902   0.833 -0.5088 -0.0351  0.1788
 1213SOL    HW1 3882   1.502   2.932   0.831 -0.0172  1.5922  0.9039
 1213SOL    HW2 3883   1.586   2.807   0.827 -2.1495  0.1518 -2.0314
 1214SOL     OW 3884   1.412   1.494   1.318  0.3033  0.1525  0.3352
 1214SOL    HW1 3885   1.507   1.508   1.321  0.5031 -1.2281  1.3036
 1214SOL    HW2 3886   1.387   1.478   1.409 -0.8425  0.3833  0.0728
 1215SOL     OW 3887   3.526   2.581   0.045 -0.2997 -0.4766  0.4700
 1215SOL    HW1 3888   3.445   2.628   0.030 -0.5497 -1.0352  0.0545
 1215SOL    HW2 3889   3.575   2.588  -0.037 -0.3682 -0.9859  0.3786
 1216SOL     OW 3890   1.026   1.600   1.904 -0.3160  0.6041  0.1465
 1216SOL    HW1 3891   1.060   1.687   1.880 -0.5663  0.3925 -1.0771
 1216SOL    HW2 3892   1.104   1.549   1.925 -0.1303  1.0041  0.4397
 1217SOL     OW 3893   2.985   0.070   2.196  0.1358 -0.2249  0.1676
 1217SOL    HW1 3894   2.962   0.082   2.289 -0.1281  1.7044 -0.1150
 1217SOL    HW2 3895   2.911   0.020   2.161 -0.3812  0.1132  0.7356
 1218SOL     OW 3896   2.403   0.350   0.219 -0.0925  0.3878 -0.7256
 1218SOL    HW1 3897   2.333   0.375   0.158 -1.2328 -0.6594  0.1199
 1218SOL    HW2 3898   2.423   0.259   0.197 -1.2965 -0.3821  1.1286
 1219SOL     OW 3899   3.023   0.151   0.727 -0.3598 -0.4031 -0.3212
 1219SOL    HW1 3900   2.985   0.122   0.810  0.3433 -0.9095 -0.1619
 1219SOL    HW2 3901   3.012   0.076   0.668 -0.6801 -0.1162 -0.6365
 1220SOL     OW 3902   2.007   4.400   0.597 -0.1666  0.2896 -0.6832
 1220SOL    HW1 3903   1.915   4.386   0.618  0.4021 -1.3518  0.9017
 1220SOL    HW2 3904   2.022   4.346   0.519 -0.7376  1.3846 -1.5990
 1221SOL     OW 3905   4.015   4.270   1.961  0.2765  0.0769  0.2291
 1221SOL    HW1 3906   4.006   4.230   1.875  2.0301  0.8047 -0.3452
 1221SOL    HW2 3907   4.030   4.196   2.020  1.6377 -0.2767 -0.5218
 1222SOL     OW 3908   0.725   2.156   3.025  0.6574 -0.1292 -0.1284
 1222SOL    HW1 3909   0.782   2.177   3.099  1.8201 -0.6785 -0.8519
 1222SOL    HW2 3910   0.650   2.111   3.065  0.9599  0.1487  0.7786
 1223SOL     OW 3911   4.325   4.315   1.363  0.8362  0.5407 -0.1665
 1223SOL    HW1 3912   4.398   4.372   1.389  1.7611 -0.2735 -0.9202
 1223SOL    HW2 3913   4.278   4.365   1.297  0.9420  0.9100  0.0332
 1224SOL     OW 3914   2.896   3.771   2.597 -0.4253  0.4966  0.3731
 1224SOL    HW1 3915   2.931   3.852   2.559  1.5103 -0.2431  0.4616
 1224SOL    HW2 3916   2.898   3.707   2.526  1.7022 -0.4579  1.2022
 1225SOL     OW 3917   2.568   2.050   2.202 -0.6123  0.1247 -0.1709
 1225SOL    HW1 3918   2.536   1.974   2.154 -1.2458  0.5425 -0.4203
 1225SOL    HW2 3919   2.623   2.097   2.139  2.2045 -1.6190  0.8163
 1226SOL     OW 3920   3.251   2.688   3.031 -0.0080  0.6038  0.0216
 1226SOL    HW1 3921   3.310   2.741   2.977 -0.1499  1.3071  0.5418
 1226SOL    HW2 3922   3.300   2.609   3.050  0.3340  0.6838 -0.4937
 1227SOL     OW 3923   2.307   3.862   1.820 -0.1794  0.1727  0.5929
 1227SOL    HW1 3924   2.333   3.810   1.897  0.3172  1.8608  1.6272
 1227SOL    HW2 3925   2.241   3.809   1.776 -1.0599 -0.5149  2.6382
 1228SOL     OW 3926   1.651   1.517   2.476 -0.1030 -0.1633  0.0066
 1228SOL    HW1 3927   1.708   1.581   2.434 -0.9511 -0.4159 -1.5852
 1228SOL    HW2 3928   1.675   1.433   2.436 -0.0292 -0.6348  0.9954
 1229SOL     OW 3929   4.144   0.270   2.604 -0.9943 -0.1205 -0.3650
 1229SOL    HW1 3930   4.187   0.221   2.534  0.1793  0.7657 -0.2986
 1229SOL    HW2 3931   4.075   0.320   2.560 -0.5450  0.0954 -0.8333
 1230SOL     OW 3932   0.267   4.225   1.082 -0.3015  0.3719 -0.4080
 1230SOL    HW1 3933   0.250   4.310   1.121  1.8310  0.1063  1.3270
 1230SOL    HW2 3934   0.191   4.172   1.105 -0.5931  1.1748  0.5392
 1231SOL     OW 3935   2.932   1.281   2.873 -0.1748 -0.2978 -0.1113
 1231SOL    HW1 3936   2.968   1.282   2.962  1.2873  0.6730 -0.6636
 1231SOL    HW2 3937   2.924   1.373   2.849  1.6472 -0.4966 -1.7737
 1232SOL     OW 3938   2.823   1.842   2.994  0.2476  0.4027 -0.2124
 1232SOL    HW1 3939   2.776   1.878   2.919 -1.3379 -0.5113  0.3008
 1232SOL    HW2 3940   2.754   1.814   3.054  1.4779  0.7333  1.4121
 1233SOL     OW 3941   3.755   0.071   0.675 -0.4543 -0.2742 -0.4644
 1233SOL    HW1 3942   3.834   0.026   0.706 -0.6893 -0.3852 -0.0160
 1233SOL    HW2 3943   3.788   0.137   0.614  0.1763  0.8013  0.9446
 1234SOL     OW 3944   0.880   2.189   2.157  0.4047  0.0688 -0.2864
 1234SOL    HW1 3945   0.802   2.175   2.103  0.6335  2.0365 -1.2347
 1234SOL    HW2 3946   0.937   2.115   2.137 -0.7997 -0.8779 -0.3393
 1235SOL     OW 3947   3.479   4.049   0.176  0.3297 -0.7379 -0.2228
 1235SOL    HW1 3948   3.500   4.143   0.173 -0.1616 -0.5895 -4.0088
 1235SOL    HW2 3949   3.553   4.007   0.131  0.5935 -2.2354  1.5229
 1236SOL     OW 3950   1.703   1.289   2.320  0.2011  0.2918  0.2270
 1236SOL    HW1 3951   1.786   1.254   2.289  0.1282 -0.6284  0.9916
 1236SOL    HW2 3952   1.646   1.287   2.243  0.9108  1.0741 -0.3396
 1237SOL     OW 3953   2.011   1.114   0.023  0.5805 -0.3101  0.4110
 1237SOL    HW1 3954   2.024   1.142   0.114 -2.0056 -2.8377  1.6932
 1237SOL    HW2 3955   2.074   1.043   0.010  0.9662  0.0664  0.1918
 1238SOL     OW 3956   0.107   0.680   2.456  0.1215 -0.4199 -0.2639
 1238SOL    HW1 3957   0.132   0.704   2.545 -0.1911  2.1025 -0.7843
 1238SOL    HW2 3958   0.032   0.621   2.467 -0.3181  0.3573  1.1467
 1239SOL     OW 3959   2.512   3.510   0.966 -0.2059  0.0287 -0.5176
 1239SOL    HW1 3960   2.518   3.501   0.871  2.1949 -1.4439 -0.3166
 1239SOL    HW2 3961   2.443   3.448   0.991 -0.2396 -0.2372 -1.2297
 1240SOL     OW 3962   0.772   1.544   1.318  0.8943 -0.2171 -0.0088
 1240SOL    HW1 3963   0.721   1.553   1.238  2.1960  0.5745 -0.7700
 1240SOL    HW2 3964   0.862   1.531   1.288  1.0929 -2.4173  1.2759
 1241SOL     OW 3965   3.247   1.012   1.496  0.8862  0.3118  0.5720
 1241SOL    HW1 3966   3.223   1.066   1.571  0.8331 -0.9008  1.4695
 1241SOL    HW2 3967   3.189   1.041   1.426  0.2247  0.7755  1.2950
 1242SOL     OW 3968   4.361   0.257   0.979  0.0794  0.4150 -1.0138
 1242SOL    HW1 3969   4.309   0.268   0.899 -0.3256  3.2006 -0.4579
 1242SOL    HW2 3970   4.394   0.344   0.999 -0.7409  0.0835  2.4450
 1243SOL     OW 3971   2.964   1.503   0.971  0.3416 -0.3673 -0.2476
 1243SOL    HW1 3972   2.900   1.484   1.040 -0.6865  2.3940 -0.2852
 1243SOL    HW2 3973   2.980   1.597   0.980  0.7299 -0.0674 -3.3075
 1244SOL     OW 3974   2.841   1.370   2.431  0.6947 -0.4959  0.4819
 1244SOL    HW1 3975   2.929   1.338   2.414  0.0064 -1.4290 -1.7076
 1244SOL    HW2 3976   2.828   1.440   2.368 -0.9001 -1.9723 -0.9457
 1245SOL     OW 3977   3.416   3.531   0.123 -0.0323  0.6157 -0.1267
 1245SOL    HW1 3978   3.447   3.577   0.045  3.3687  0.2169  0.8441
 1245SOL    HW2 3979   3.356   3.465   0.089  1.1839  0.5922 -2.4134
 1246SOL     OW 3980   4.354   1.034   1.256  0.3197 -0.4161 -0.1629
 1246SOL    HW1 3981   4.313   0.964   1.205  1.2196 -0.7247 -0.4759
 1246SOL    HW2 3982   4.432   1.057   1.206  0.7458 -0.1081  0.6331
 1247SOL     OW 3983   1.949   2.094   2.314 -0.1484  0.1588 -0.4444
 1247SOL    HW1 3984   1.943   2.002   2.339 -1.4750  0.0271 -1.1939
 1247SOL    HW2 3985   1.986   2.137   2.392 -1.0874 -0.7437  0.5300
 1248SOL     OW 3986   0.687   1.895   1.701 -0.0038  0.0416  0.0587
 1248SOL    HW1 3987   0.744   1.891   1.777  0.7567  0.8354 -0.4511
 1248SOL    HW2 3988   0.690   1.807   1.664 -0.5005 -0.3986  1.0082
 1249SOL     OW 3989   2.962   0.763   0.117  0.2833 -0.0682  0.4274
 1249SOL    HW1 3990   2.893   0.728   0.060  1.1129 -0.6031 -0.2844
 1249SOL    HW2 3991   2.966   0.856   0.096  1.5526 -0.4906 -1.5212
 1250SOL     OW 3992   3.084   4.092   2.179  0.1487 -0.3873 -0.1234
 1250SOL    HW1 3993   3.142   4.151   2.131  0.3860  0.6849  1.3843
 1250SOL    HW2 3994   3.136   4.066   2.256 -1.6509  1.4513  1.8358
 1251SOL     OW 3995   2.195   4.228   1.032 -0.2491  0.9082 -0.6755
 1251SOL    HW1 3996   2.154   4.310   1.004  0.7762  1.0601 -1.8211
 1251SOL    HW2 3997   2.264   4.255   1.093 -2.0798  0.6192  1.6460
 1252SOL     OW 3998   3.714   1.375   2.711 -0.5050  0.6980 -0.3497
 1252SOL    HW1 3999   3.743   1.456   2.752  0.9488  0.2285 -0.4006
 1252SOL    HW2 4000   3.794   1.330   2.685 -1.3018 -0.3391 -1.1609
 1253SOL     OW 4001   1.109   0.974   0.704  0.0584  0.2826  0.3104
 1253SOL    HW1 4002   1.186   1.009   0.749  0.7533  1.7680 -1.8125
 1253SOL    HW2 4003   1.042   1.041   0.717  0.2136  0.6417 -0.6367
 1254SOL     OW 4004   1.693   1.232   2.736  0.1077  0.4469  0.3480
 1254SOL    HW1 4005   1.752   1.192   2.800 -0.6245 -0.1051  0.7075
 1254SOL    HW2 4006   1.690   1.169   2.664  0.3977  0.7425  0.0769
 1255SOL     OW 4007   0.744   2.155   1.839  0.2794  0.1020 -0.6033
 1255SOL    HW1 4008   0.665   2.119   1.800 -1.5341  1.3156  1.7394
 1255SOL    HW2 4009   0.747   2.246   1.808 -0.7919  0.8636  1.3632
 1256SOL     OW 4010   2.376   1.812   3.144  0.0802 -0.0158 -0.2273
 1256SOL    HW1 4011   2.436   1.884   3.123 -0.1372  0.0686 -0.5696
 1256SOL    HW2 4012   2.366   1.765   3.061 -0.0617 -0.2294 -0.0895
 1257SOL     OW 4013   3.683   0.874   1.709 -0.3604  0.3213 -0.0407
 1257SOL    HW1 4014   3.701   0.929   1.785  1.3299  0.5229 -0.5491
 1257SOL    HW2 4015   3.760   0.884   1.653  1.0815 -4.0991  0.7298
 1258SOL     OW 4016   2.359   0.052   2.248 -0.7062  0.6082  0.7071
 1258SOL    HW1 4017   2.273   0.073   2.285 -0.6323  0.5888  0.8902
 1258SOL    HW2 4018   2.419   0.113   2.292 -0.4852 -0.0021  1.2608
 1259SOL     OW 4019   3.349   2.418   0.280 -0.2400 -0.1812  0.0189
 1259SOL    HW1 4020   3.282   2.448   0.218  0.6077  0.4853 -0.6111
 1259SOL    HW2 4021   3.312   2.438   0.366  0.1584  2.5991 -0.3440
 1260SOL     OW 4022   0.716   4.231   2.563  0.2777  0.9413 -0.0063
 1260SOL    HW1 4023   0.801   4.189   2.570 -0.6891 -0.8922  1.7056
 1260SOL    HW2 4024   0.675   4.190   2.487 -0.2083 -0.4626  0.9710
 1261SOL     OW 4025   3.939   2.451   1.183  0.2436 -0.2332  0.2336
 1261SOL    HW1 4026   3.895   2.513   1.125  1.5445  1.6090  1.1062
 1261SOL    HW2 4027   3.886   2.450   1.263 -0.6058 -1.4434 -0.3297
 1262SOL     OW 4028   0.565   3.619   1.657  0.1999  0.0660 -1.0439
 1262SOL    HW1 4029   0.540   3.609   1.565 -0.8828 -2.9545 -0.5528
 1262SOL    HW2 4030   0.617   3.541   1.676  0.0192  0.3813  1.0100
 1263SOL     OW 4031   1.418   2.252   0.543 -0.7598 -0.1873 -0.2549
 1263SOL    HW1 4032   1.512   2.245   0.523 -0.6127 -2.5038  0.8694
 1263SOL    HW2 4033   1.383   2.307   0.474  1.6255  1.8456  0.0227
 1264SOL     OW 4034   2.129   0.896   2.760  0.3416 -0.4733  0.1251
 1264SOL    HW1 4035   2.105   0.987   2.741  1.0385  0.1952  2.1643
 1264SOL    HW2 4036   2.189   0.872   2.689  1.0216  1.0637  0.1390
 1265SOL     OW 4037   0.748   0.029   1.353 -0.2309 -0.0080 -0.0150
 1265SOL    HW1 4038   0.663   0.008   1.392 -0.6485 -1.8697 -1.7494
 1265SOL    HW2 4039   0.796   0.073   1.423 -2.1448 -0.1000  1.4380
 1266SOL     OW 4040   2.735   1.936   2.385 -0.1861 -0.4913 -0.5607
 1266SOL    HW1 4041   2.694   1.981   2.312 -1.0246  0.2810  0.3615
 1266SOL    HW2 4042   2.819   1.981   2.398 -0.4728  0.0095 -0.4283
 1267SOL     OW 4043   1.344   1.210   2.006  0.2873  0.2708  0.6034
 1267SOL    HW1 4044   1.410   1.206   2.075 -0.8288  1.2245  1.7707
 1267SOL    HW2 4045   1.314   1.119   1.997  1.4450 -0.1048  0.3319
 1268SOL     OW 4046   1.222   4.262   2.204 -0.4364 -0.0360 -0.2509
 1268SOL    HW1 4047   1.131   4.249   2.179 -0.8830  0.9348  0.7681
 1268SOL    HW2 4048   1.242   4.189   2.263 -0.5087 -0.3355 -0.5999
 1269SOL     OW 4049   1.251   2.202   0.747  0.1488 -0.1536 -0.2114
 1269SOL    HW1 4050   1.231   2.290   0.779  1.2844 -0.1081  0.4272
 1269SOL    HW2 4051   1.301   2.216   0.667 -0.6348 -0.2453 -0.7299
 1270SOL     OW 4052   2.322   0.584   0.948 -0.5440 -0.3267 -0.0713
 1270SOL    HW1 4053   2.236   0.544   0.964 -1.5008  0.7210 -2.1857
 1270SOL    HW2 4054   2.382   0.534   1.003 -2.4279 -1.3801  1.1530
 1271SOL     OW 4055   0.186   1.034   0.135 -0.1152 -0.2863  0.3576
 1271SOL    HW1 4056   0.222   0.946   0.144  0.1820 -0.3012 -0.7900
 1271SOL    HW2 4057   0.259   1.087   0.104 -0.5100  0.1696  0.1876
 1272SOL     OW 4058   2.497   2.633   1.057 -0.3159  0.4097  0.1028
 1272SOL    HW1 4059   2.524   2.620   0.966 -0.0769 -0.4110  0.2794
 1272SOL    HW2 4060   2.438   2.708   1.054  0.6976  1.2068 -0.5350
 1273SOL     OW 4061   3.622   1.746   2.064  0.1332 -0.2864 -0.2196
 1273SOL    HW1 4062   3.619   1.785   1.977  0.1832  2.1417  0.8031
 1273SOL    HW2 4063   3.575   1.808   2.120  0.4146 -1.6129  1.5617
 1274SOL     OW 4064   2.009   4.048   0.068 -0.1434 -0.0956 -0.2359
 1274SOL    HW1 4065   2.005   4.012   0.156  0.1110  0.2953 -0.0601
 1274SOL    HW2 4066   2.102   4.043   0.044  0.0179  1.1274  0.0891
 1275SOL     OW 4067   1.915   1.144   2.177  0.1833 -0.2691  0.4200
 1275SOL    HW1 4068   1.961   1.066   2.146 -1.4079 -0.6067 -1.2929
 1275SOL    HW2 4069   1.943   1.213   2.117  0.5258  0.1699  1.0738
 1276SOL     OW 4070   0.196   1.097   2.596 -0.0800  0.3496  0.6065
 1276SOL    HW1 4071   0.227   1.136   2.515  1.7322 -2.5536 -0.2540
 1276SOL    HW2 4072   0.272   1.099   2.654  0.6216 -2.9758  0.0026
 1277SOL     OW 4073   2.500   3.021   0.804 -0.2814 -0.4242 -0.1897
 1277SOL    HW1 4074   2.447   2.989   0.731 -0.1180  0.5151 -0.7346
 1277SOL    HW2 4075   2.587   2.982   0.789  0.5018  1.8149 -2.0199
 1278SOL     OW 4076   0.631   3.301   2.019 -0.0695  0.5700 -0.4569
 1278SOL    HW1 4077   0.654   3.365   2.087 -0.6881 -1.9287  2.2932
 1278SOL    HW2 4078   0.539   3.281   2.036  0.1779 -1.2147 -1.0898
 1279SOL     OW 4079   3.203   1.567   2.515  0.7131 -0.1631 -0.7531
 1279SOL    HW1 4080   3.232   1.516   2.440  3.1615 -1.7857  1.1086
 1279SOL    HW2 4081   3.173   1.502   2.579  1.2015  0.9091  0.6447
 1280SOL     OW 4082   0.681   3.864   2.302  0.2819 -0.1755 -0.1115
 1280SOL    HW1 4083   0.619   3.830   2.367  2.3901 -0.2589  1.9624
 1280SOL    HW2 4084   0.628   3.921   2.246 -1.5325  0.3122  1.9984
 1281SOL     OW 4085   3.709   3.973   1.300  0.8013  0.8282  0.5097
 1281SOL    HW1 4086   3.731   3.991   1.208  0.6997  0.7166  0.4627
 1281SOL    HW2 4087   3.777   4.018   1.350  1.0647  0.5914  0.3689
 1282SOL     OW 4088   1.899   1.466   0.339 -0.1237  0.4309 -0.4318
 1282SOL    HW1 4089   1.865   1.527   0.405  0.2540  1.1689 -0.9006
 1282SOL    HW2 4090   1.882   1.509   0.256 -1.4461 -0.9165 -0.8979
 1283SOL     OW 4091   1.023   2.551   0.703  0.1485 -0.1103 -0.0942
 1283SOL    HW1 4092   0.985   2.463   0.700  1.0097 -0.4843 -0.6480
 1283SOL    HW2 4093   1.029   2.572   0.796 -0.9953 -0.2105  0.0159
 1284SOL     OW 4094   1.342   2.485   3.063 -0.0177  0.3952 -0.2706
 1284SOL    HW1 4095   1.260   2.463   3.107  0.0126  1.4928  0.3777
 1284SOL    HW2 4096   1.381   2.400   3.040 -1.9496 -0.1281 -1.8268
 1285SOL     OW 4097   0.078   1.522   0.950  0.1137  0.1745 -0.2965
 1285SOL    HW1 4098   0.108   1.607   0.919 -1.4021  0.4196 -1.2187
 1285SOL    HW2 4099   0.127   1.459   0.897 -0.1080  0.5387 -0.9605
 1286SOL     OW 4100   0.177   2.930   0.384 -0.4082  0.2747  0.2341
 1286SOL    HW1 4101   0.179   3.025   0.396 -2.0002  0.5607 -1.3066
 1286SOL    HW2 4102   0.115   2.899   0.449 -1.4037  0.5696 -0.5455
 1287SOL     OW 4103   0.208   0.123   2.042  0.6386  0.1221  0.2210
 1287SOL    HW1 4104   0.126   0.090   2.078  1.1848 -1.1812  0.3055
 1287SOL    HW2 4105   0.185   0.151   1.953 -0.1594  0.9960  0.6759
 1288SOL     OW 4106   1.170   0.399   0.172  0.2760  0.1026  0.2875
 1288SOL    HW1 4107   1.183   0.493   0.175 -0.9705  0.3079 -0.3131
 1288SOL    HW2 4108   1.214   0.371   0.092  0.4893  0.1809  0.3739
 1289SOL     OW 4109   1.298   1.707   1.206  0.2187 -0.5342  0.2187
 1289SOL    HW1 4110   1.370   1.653   1.240 -0.6863 -1.2004  1.1132
 1289SOL    HW2 4111   1.276   1.766   1.277 -0.0756 -0.2781 -0.0827
 1290SOL     OW 4112   2.691   4.132   2.761  0.4605 -0.0187 -0.1335
 1290SOL    HW1 4113   2.665   4.040   2.759 -0.4512  0.2509 -1.2386
 1290SOL    HW2 4114   2.650   4.171   2.684  1.5682  1.1279 -0.1798
 1291SOL     OW 4115   0.866   1.703   0.559 -0.2984  0.0493  0.1177
 1291SOL    HW1 4116   0.931   1.717   0.628 -2.8143  2.4273  2.2030
 1291SOL    HW2 4117   0.870   1.609   0.542  1.0126 -0.5152  2.9513
 1292SOL     OW 4118   0.985   2.057   1.914  0.3070  0.8135 -1.0480
 1292SOL    HW1 4119   0.954   1.990   1.975 -0.0034 -0.2540 -2.3443
 1292SOL    HW2 4120   0.908   2.113   1.900  0.0574  0.4002 -1.3313
 1293SOL     OW 4121   0.021   0.849   1.963 -0.0039  0.2729  0.3148
 1293SOL    HW1 4122  -0.053   0.910   1.972  0.2843  0.5956  0.5290
 1293SOL    HW2 4123   0.048   0.831   2.053 -1.4765 -1.9281  0.3998
 1294SOL     OW 4124   1.771   2.530   0.231 -0.1626 -0.2554  0.3798
 1294SOL    HW1 4125   1.757   2.515   0.137 -0.7317  0.4413  0.3478
 1294SOL    HW2 4126   1.783   2.624   0.239 -1.3262 -0.1557  1.1489
 1295SOL     OW 4127   3.787   0.047   2.258 -0.2757 -0.6208  0.4188
 1295SOL    HW1 4128   3.724   0.081   2.321 -0.8052 -0.7189 -0.0534
 1295SOL    HW2 4129   3.847   0.119   2.242 -1.6557  0.2857 -0.9327
 1296SOL     OW 4130   0.992   1.830   2.640 -0.4391  0.0375 -0.0737
 1296SOL    HW1 4131   0.919   1.833   2.702 -1.3302  1.8235 -1.0980
 1296SOL    HW2 4132   0.967   1.763   2.577 -1.0204  0.3328 -0.1720
 1297SOL     OW 4133   2.408   1.318   2.720  0.3789  0.5452 -0.0324
 1297SOL    HW1 4134   2.480   1.379   2.705  0.9326  0.1837  1.0235
 1297SOL    HW2 4135   2.331   1.363   2.687  1.1967  0.6078 -1.9542
 1298SOL     OW 4136   1.877   3.497   2.749 -0.1732 -0.0309 -0.5045
 1298SOL    HW1 4137   1.791   3.485   2.790  0.1041  0.2260  0.1598
 1298SOL    HW2 4138   1.863   3.565   2.684 -0.2780  0.6667  0.2329
 1299SOL     OW 4139   4.361   1.965   0.971  0.1398  0.1996  0.3833
 1299SOL    HW1 4140   4.433   2.021   0.942  1.8034 -1.6692  0.6901
 1299SOL    HW2 4141   4.380   1.880   0.931 -1.6652 -0.4692  0.8723
 1300SOL     OW 4142   1.737   0.943   0.960  0.5312  0.2729 -0.1788
 1300SOL    HW1 4143   1.716   1.035   0.975  1.1437  0.5370 -0.8754
 1300SOL    HW2 4144   1.826   0.944   0.924  1.0464 -0.6957  1.0292
 1301SOL     OW 4145   1.502   3.667   2.738 -0.0768 -0.2372 -0.1095
 1301SOL    HW1 4146   1.544   3.594   2.784  1.6459  0.7109 -0.1163
 1301SOL    HW2 4147   1.520   3.744   2.792 -3.6299  0.0116  1.0255
 1302SOL     OW 4148   2.816   1.856   2.700  0.0625  0.2832  0.5418
 1302SOL    HW1 4149   2.896   1.804   2.691 -0.4163 -0.1631 -1.9534
 1302SOL    HW2 4150   2.753   1.813   2.642 -0.6552  3.0456 -0.9019
 1303SOL     OW 4151   1.462   2.811   0.558  0.0392  0.3435 -0.6562
 1303SOL    HW1 4152   1.443   2.897   0.595  0.0255  0.3762 -0.7381
 1303SOL    HW2 4153   1.439   2.749   0.627 -2.2021  0.2561 -1.3854
 1304SOL     OW 4154   3.056   0.294   1.089  0.2758 -0.1335 -0.4245
 1304SOL    HW1 4155   3.060   0.390   1.094 -0.4419 -0.1444  0.6505
 1304SOL    HW2 4156   3.144   0.268   1.060  0.5753  0.8388 -0.4204
 1305SOL     OW 4157   0.526   3.416   0.750  0.1156 -0.0392  0.4531
 1305SOL    HW1 4158   0.590   3.481   0.722 -0.0680 -0.7498 -1.7940
 1305SOL    HW2 4159   0.452   3.468   0.783  0.6815  0.8282  0.3892
 1306SOL     OW 4160   1.224   0.677   0.144 -0.0792  0.0043 -0.1722
 1306SOL    HW1 4161   1.261   0.676   0.055  0.6834  0.7681  0.1220
 1306SOL    HW2 4162   1.272   0.747   0.189 -0.1994 -0.6095  0.9482
 1307SOL     OW 4163   1.764   1.777   1.192  0.2010  0.2024 -0.1398
 1307SOL    HW1 4164   1.852   1.757   1.161  0.4298  0.6088  0.2363
 1307SOL    HW2 4165   1.755   1.726   1.272 -0.4202 -0.9104 -0.8910
 1308SOL     OW 4166   0.263   2.204   1.458  0.4218  0.1069 -0.4334
 1308SOL    HW1 4167   0.335   2.263   1.483  0.1897  0.2788 -0.1712
 1308SOL    HW2 4168   0.307   2.120   1.442  0.4848 -0.2662  1.4563
 1309SOL     OW 4169   0.113   1.879   2.350  0.1455 -0.0590  0.0177
 1309SOL    HW1 4170   0.208   1.887   2.361  0.1264  1.3781 -0.6817
 1309SOL    HW2 4171   0.082   1.848   2.435  0.9976  1.9005  1.1257
 1310SOL     OW 4172   1.849   1.075   2.913 -0.1662  0.1822  0.3026
 1310SOL    HW1 4173   1.811   0.988   2.898  0.5996 -0.1165  0.0667
 1310SOL    HW2 4174   1.939   1.068   2.880 -0.2830  1.2409 -0.2785
 1311SOL     OW 4175   2.394   1.637   0.902  0.0871 -0.4902  0.0549
 1311SOL    HW1 4176   2.303   1.663   0.887  0.3614  0.0690 -0.6876
 1311SOL    HW2 4177   2.402   1.552   0.858  0.4758  0.4401 -1.7927
 1312SOL     OW 4178   2.907   1.059   2.537 -0.0713 -0.3145  0.1916
 1312SOL    HW1 4179   2.985   1.035   2.586  0.5705 -0.0437 -0.6778
 1312SOL    HW2 4180   2.838   1.067   2.603  1.0703  1.4109  1.2259
 1313SOL     OW 4181   0.843   1.097   0.731 -0.0764  0.3808  0.1201
 1313SOL    HW1 4182   0.803   1.183   0.720  0.8817  0.8160 -0.1672
 1313SOL    HW2 4183   0.804   1.061   0.810 -1.2357  0.6438 -0.3128
 1314SOL     OW 4184   1.271   1.700   2.526  0.2231 -0.4538  0.1970
 1314SOL    HW1 4185   1.221   1.653   2.458  0.7140 -0.3764 -0.2236
 1314SOL    HW2 4186   1.208   1.715   2.596  0.1603 -2.1641  0.5573
 1315SOL     OW 4187   1.490   0.615   1.528  0.1225  0.1729  0.0930
 1315SOL    HW1 4188   1.523   0.599   1.616  0.6702  1.0422  0.0627
 1315SOL    HW2 4189   1.408   0.566   1.523  1.7279 -2.7569 -0.0815
 1316SOL     OW 4190   1.344   0.103   3.096 -0.4486  0.0429 -0.0516
 1316SOL    HW1 4191   1.436   0.103   3.069 -0.7921  0.8312 -1.3110
 1316SOL    HW2 4192   1.329   0.193   3.126 -0.5723 -0.3350  1.0444
 1317SOL     OW 4193   1.277   0.353   1.328  0.2689 -0.1599  0.0211
 1317SOL    HW1 4194   1.313   0.315   1.248 -0.1356  0.3682 -0.4143
 1317SOL    HW2 4195   1.250   0.277   1.380 -0.7201 -0.4774 -0.9218
 1318SOL     OW 4196   4.206   0.782   3.088  0.0039 -0.1697  0.0465
 1318SOL    HW1 4197   4.115   0.754   3.089 -0.1007  0.1811  0.6887
 1318SOL    HW2 4198   4.203   0.875   3.107  0.4707 -0.0811 -0.3075
 1319SOL     OW 4199   1.251   2.747   3.002 -0.0492 -0.1553  0.3011
 1319SOL    HW1 4200   1.209   2.743   2.916 -1.5037  0.2024  0.9634
 1319SOL    HW2 4201   1.287   2.659   3.016  1.6409  0.2309 -1.3428
 1320SOL     OW 4202   4.002   1.984   1.298  0.3735 -0.3024 -0.6750
 1320SOL    HW1 4203   3.910   2.010   1.297  0.2864 -0.4141  0.8963
 1320SOL    HW2 4204   4.046   2.049   1.244 -0.3635  0.9687  0.1976
 1321SOL     OW 4205   2.638   2.705   0.221 -0.5321  0.0057  0.7472
 1321SOL    HW1 4206   2.612   2.626   0.267 -0.2048 -0.9311 -0.6052
 1321SOL    HW2 4207   2.732   2.696   0.209 -0.6095  0.2177 -0.0857
 1322SOL     OW 4208   2.553   0.317   2.389  0.0609 -0.1783  0.1103
 1322SOL    HW1 4209   2.504   0.399   2.378 -0.4360 -0.4630  0.1564
 1322SOL    HW2 4210   2.645   0.343   2.381 -0.0944  0.3660  0.0119
 1323SOL     OW 4211   4.318   0.099   0.441  0.2550  0.7853 -0.1446
 1323SOL    HW1 4212   4.353   0.181   0.404  1.5337  0.2241 -0.2409
 1323SOL    HW2 4213   4.347   0.031   0.380  1.9988 -0.1090  1.5752
 1324SOL     OW 4214   1.022   0.369   2.233  0.2561 -0.5116 -0.0396
 1324SOL    HW1 4215   1.060   0.403   2.314 -1.3323 -1.8481  1.3418
 1324SOL    HW2 4216   1.089   0.311   2.197  1.4623  1.0303 -0.3950
 1325SOL     OW 4217   4.390   0.930   0.292 -0.3111 -0.6846  0.3130
 1325SOL    HW1 4218   4.444   0.975   0.228 -0.3768 -0.2711  0.5496
 1325SOL    HW2 4219   4.300   0.948   0.264 -0.3455 -0.2459  0.6949
 1326SOL     OW 4220   0.626   0.544   1.342 -0.4209  0.2989 -0.4593
 1326SOL    HW1 4221   0.604   0.451   1.347 -2.2293  0.3367 -4.2366
 1326SOL    HW2 4222   0.575   0.584   1.412 -0.7812 -1.3838  0.2983
 1327SOL     OW 4223   0.616   4.148   1.768 -0.9671 -0.4047 -0.2088
 1327SOL    HW1 4224   0.526   4.178   1.775 -0.9544  0.6011 -3.1301
 1327SOL    HW2 4225   0.621   4.104   1.683  1.2990 -0.3273 -0.1937
 1328SOL     OW 4226   1.300   4.381   1.705  0.6921 -0.3807 -0.1100
 1328SOL    HW1 4227   1.385   4.389   1.663  0.0392  1.3945 -1.1976
 1328SOL    HW2 4228   1.317   4.329   1.783  2.6810 -0.4634 -0.5420
 1329SOL     OW 4229   3.574   4.316   0.152  0.4536  0.4602 -0.7816
 1329SOL    HW1 4230   3.565   4.392   0.209  0.0877  0.0969 -0.3461
 1329SOL    HW2 4231   3.540   4.344   0.068 -0.1136  0.6385 -0.4948
 1330SOL     OW 4232   2.650   0.036   2.904 -0.3745 -0.5022  0.0035
 1330SOL    HW1 4233   2.673   0.077   2.988 -0.2652 -1.1258  0.2852
 1330SOL    HW2 4234   2.588  -0.032   2.928 -1.4376  0.2277 -0.5864
 1331SOL     OW 4235   0.255   2.293   0.520 -0.5531 -0.0346 -0.5960
 1331SOL    HW1 4236   0.328   2.348   0.490  0.5784 -0.8386  0.5812
 1331SOL    HW2 4237   0.278   2.205   0.492 -1.2489 -0.2523 -0.5011
 1332SOL     OW 4238   1.862   2.028   1.905 -0.0545  0.3201 -0.0073
 1332SOL    HW1 4239   1.782   2.059   1.864 -1.1687  1.3856  2.7489
 1332SOL    HW2 4240   1.838   2.012   1.996  2.4908 -0.9379  0.5412
 1333SOL     OW 4241   1.614   0.906   1.740 -0.0210  0.5427  0.2479
 1333SOL    HW1 4242   1.521   0.891   1.723  0.5809 -1.5128 -1.8541
 1333SOL    HW2 4243   1.644   0.955   1.665  0.8275  0.0559  0.2604
 1334SOL     OW 4244   2.548   3.408   0.702  0.1127  0.3108 -0.2787
 1334SOL    HW1 4245   2.457   3.388   0.682 -0.8329  1.0755  2.6244
 1334SOL    HW2 4246   2.598   3.377   0.627 -2.2718 -2.4830 -0.8646
 1335SOL     OW 4247   1.612   1.047   1.321 -0.2173  0.2017  0.6084
 1335SOL    HW1 4248   1.706   1.059   1.311  0.2743 -3.6523 -1.5975
 1335SOL    HW2 4249   1.573   1.097   1.249  0.2781  0.6267  0.6340
 1336SOL     OW 4250   0.214   2.549   1.359  0.1093  0.6715 -0.0577
 1336SOL    HW1 4251   0.162   2.576   1.284  0.5880  0.5514 -0.4369
 1336SOL    HW2 4252   0.232   2.631   1.406 -0.1696  0.7503 -0.0862
 1337SOL     OW 4253   0.895   0.663   0.519 -0.2827  0.0406  0.1641
 1337SOL    HW1 4254   0.928   0.582   0.557 -1.2441 -0.1092  0.7146
 1337SOL    HW2 4255   0.862   0.713   0.595 -0.2372  0.6928 -0.2334
 1338SOL     OW 4256   1.950   2.426   2.703 -0.3109  0.9280 -0.0687
 1338SOL    HW1 4257   1.985   2.481   2.773 -0.3628  0.7732  0.0802
 1338SOL    HW2 4258   1.858   2.451   2.696 -0.2324  1.1578 -0.2895
 1339SOL     OW 4259   2.101   1.156   2.814  0.0003 -0.0154  0.4214
 1339SOL    HW1 4260   2.187   1.199   2.811  0.3227 -0.7206 -1.4787
 1339SOL    HW2 4261   2.039   1.227   2.797  0.3240  0.2084  0.1494
 1340SOL     OW 4262   0.285   1.971   0.711  0.1133  0.3979 -0.0420
 1340SOL    HW1 4263   0.372   1.933   0.703  0.8026  2.0092 -0.4716
 1340SOL    HW2 4264   0.248   1.964   0.623 -0.3657 -0.6002  0.2141
 1341SOL     OW 4265   3.145   0.720   2.618  0.1041  0.0227  0.0513
 1341SOL    HW1 4266   3.117   0.727   2.709  0.3525  0.7451  0.0803
 1341SOL    HW2 4267   3.074   0.673   2.574  0.2108 -0.7830  0.7108
 1342SOL     OW 4268   1.757   2.751   0.515 -0.1594 -0.1860 -0.0761
 1342SOL    HW1 4269   1.678   2.806   0.511 -0.0836 -0.1716 -2.0707
 1342SOL    HW2 4270   1.747   2.702   0.597 -0.4504  2.4334  1.5963
 1343SOL     OW 4271   1.328   2.060   1.669 -0.6018  0.1648  0.5838
 1343SOL    HW1 4272   1.344   2.123   1.739 -0.9102  0.8263  0.0705
 1343SOL    HW2 4273   1.281   1.988   1.711 -0.8167  0.5735  1.0493
 1344SOL     OW 4274   4.046   0.536   2.044  0.0646 -0.4038  0.2642
 1344SOL    HW1 4275   4.015   0.518   2.132  0.6700 -0.0010  0.5683
 1344SOL    HW2 4276   4.086   0.623   2.050 -0.0694 -0.2814 -0.4521
 1345SOL     OW 4277   4.303   1.167   1.000 -0.7110 -0.1595 -0.4118
 1345SOL    HW1 4278   4.393   1.160   1.033 -0.9148 -1.3359 -0.0730
 1345SOL    HW2 4279   4.312   1.174   0.905 -0.2310  0.6778 -0.3144
 1346SOL     OW 4280   0.589   2.554   1.103 -0.0167 -0.7212  0.2646
 1346SOL    HW1 4281   0.511   2.572   1.050  0.3869  0.1037 -0.0611
 1346SOL    HW2 4282   0.634   2.483   1.056 -0.2546 -0.7805  0.1234
 1347SOL     OW 4283   0.030   1.686   1.714 -0.6439 -0.1721 -0.6547
 1347SOL    HW1 4284   0.011   1.642   1.631 -0.6019  0.4413 -0.9944
 1347SOL    HW2 4285   0.080   1.763   1.689 -1.3531  0.4659 -0.1383
 1348SOL     OW 4286   3.670   1.158   2.932  0.4066  0.1435  0.4850
 1348SOL    HW1 4287   3.718   1.202   3.003  0.8633 -0.2637  0.4363
 1348SOL    HW2 4288   3.660   1.226   2.865 -0.1483  0.5684  0.9901
 1349SOL     OW 4289   1.685   4.385   2.866 -0.0674  0.5122 -0.0263
 1349SOL    HW1 4290   1.648   4.423   2.946  1.4625 -1.2019  1.5702
 1349SOL    HW2 4291   1.620   4.320   2.838  0.0830  0.0474  0.6972
 1350SOL     OW 4292   2.291   2.843   1.837  0.6133 -0.1679  0.2328
 1350SOL    HW1 4293   2.237   2.791   1.896  0.2801  1.0723  1.0745
 1350SOL    HW2 4294   2.232   2.863   1.764 -0.1664  1.2498  1.1862
 1351SOL     OW 4295   1.160   0.588   3.070  0.0349 -0.8727 -0.1068
 1351SOL    HW1 4296   1.082   0.540   3.042 -0.7638  0.3737 -0.1045
 1351SOL    HW2 4297   1.147   0.602   3.164  0.1189 -0.4128 -0.1624
 1352SOL     OW 4298   1.857   3.321   1.813 -0.0897 -0.3771  0.1784
 1352SOL    HW1 4299   1.801   3.255   1.853 -0.0530  1.0613  2.7978
 1352SOL    HW2 4300   1.938   3.274   1.793 -0.6962 -1.5097  0.3012
 1353SOL     OW 4301   3.477   3.764   2.521 -0.9552 -0.2564  0.1911
 1353SOL    HW1 4302   3.482   3.768   2.425  0.8691 -0.1632  0.2636
 1353SOL    HW2 4303   3.391   3.801   2.542 -1.8126 -1.2282 -1.4544
 1354SOL     OW 4304   0.919   2.917   2.703  0.4319  0.3505  0.1344
 1354SOL    HW1 4305   0.883   3.006   2.703 -0.4598  0.0029  0.4818
 1354SOL    HW2 4306   0.953   2.904   2.615  0.4701  1.0045  0.0513
 1355SOL     OW 4307   3.253   1.424   2.065  0.0810 -0.3031 -0.3133
 1355SOL    HW1 4308   3.316   1.452   1.997 -0.7460 -0.2707 -1.0811
 1355SOL    HW2 4309   3.228   1.506   2.109  1.4002 -0.4327  0.7573
 1356SOL     OW 4310   3.827   2.452   0.710  0.0813  0.0696  0.1537
 1356SOL    HW1 4311   3.890   2.465   0.639 -0.2680  1.2065  0.0371
 1356SOL    HW2 4312   3.870   2.487   0.788  0.6062 -1.4894  0.6192
 1357SOL     OW 4313   4.106   2.363   0.269  0.1054  0.0922 -0.3217
 1357SOL    HW1 4314   4.181   2.415   0.239  2.6787 -2.4015  1.2993
 1357SOL    HW2 4315   4.094   2.297   0.201  0.4202 -0.4405  0.1312
 1358SOL     OW 4316   3.553   0.730   1.031  0.3068 -0.2485  0.4432
 1358SOL    HW1 4317   3.613   0.665   0.996  0.2186  0.2950 -0.7481
 1358SOL    HW2 4318   3.487   0.742   0.963  0.3612  1.1330  0.6026
 1359SOL     OW 4319   4.417   0.601   2.108 -0.2011  0.4600  0.3728
 1359SOL    HW1 4320   4.346   0.648   2.151  0.5622  0.9882  1.0985
 1359SOL    HW2 4321   4.384   0.582   2.020 -1.9388 -0.9358  1.2457
 1360SOL     OW 4322   3.975   4.064   0.054  0.5262 -0.2962 -0.5054
 1360SOL    HW1 4323   3.929   4.140   0.018 -1.1926 -1.5087 -1.0335
 1360SOL    HW2 4324   3.935   3.989   0.009  1.7673 -1.5466  0.3987
 1361SOL     OW 4325   1.648   3.737   2.047  0.1153  0.3018 -0.9106
 1361SOL    HW1 4326   1.692   3.657   2.020  1.4273  0.0550  1.7000
 1361SOL    HW2 4327   1.556   3.712   2.056  0.5449 -1.0414  0.1432
 1362SOL     OW 4328   1.039   0.977   2.388  0.2990  0.2723 -0.0418
 1362SOL    HW1 4329   0.979   1.047   2.413  1.4916  1.2136  0.2602
 1362SOL    HW2 4330   1.000   0.898   2.426 -0.3749  0.9687  0.7723
 1363SOL     OW 4331   3.269   3.245   2.788 -0.6251  0.3834  0.0815
 1363SOL    HW1 4332   3.305   3.314   2.734  0.5292 -0.2784 -0.0287
 1363SOL    HW2 4333   3.292   3.269   2.878  0.3514 -0.1711 -0.0104
 1364SOL     OW 4334   1.182   1.717   1.600 -0.3083  0.3114  0.3995
 1364SOL    HW1 4335   1.195   1.765   1.682 -0.7066  0.3840  0.4234
 1364SOL    HW2 4336   1.087   1.719   1.586 -0.2362  0.3359 -0.0867
 1365SOL     OW 4337   4.351   0.874   0.555  0.6858  0.0063 -0.4421
 1365SOL    HW1 4338   4.327   0.783   0.539 -1.0038  0.1192  1.2062
 1365SOL    HW2 4339   4.388   0.903   0.471 -0.5297 -1.6210 -1.6185
 1366SOL     OW 4340   0.764   0.381   2.157 -0.0690 -0.7116  0.4789
 1366SOL    HW1 4341   0.750   0.475   2.152 -0.2188 -0.6704  1.4982
 1366SOL    HW2 4342   0.853   0.371   2.191  1.0752 -0.9749 -2.2686
 1367SOL     OW 4343   2.112   2.897   0.496  0.3321 -0.5293 -0.6181
 1367SOL    HW1 4344   2.045   2.935   0.553  0.8077 -0.0177 -0.3842
 1367SOL    HW2 4345   2.126   2.963   0.428  2.6201  0.7119  0.9174
 1368SOL     OW 4346   2.124   4.236   0.419 -0.4130 -0.5907 -0.3441
 1368SOL    HW1 4347   2.209   4.230   0.462 -0.6468 -0.6426  0.1127
 1368SOL    HW2 4348   2.114   4.151   0.375 -0.9415 -1.2237  0.9451
 1369SOL     OW 4349   4.111   1.902   1.649 -1.1391  0.0667 -0.2538
 1369SOL    HW1 4350   4.028   1.942   1.676 -0.5696  0.5324  0.9188
 1369SOL    HW2 4351   4.170   1.977   1.635 -0.0240 -0.2788  2.0812
 1370SOL     OW 4352   0.832   0.662   2.089  0.3308  0.2252 -0.3367
 1370SOL    HW1 4353   0.822   0.651   1.994  1.1820 -2.0944 -0.2262
 1370SOL    HW2 4354   0.926   0.661   2.103  0.1916 -0.5851  0.6269
 1371SOL     OW 4355   1.778   2.267   2.975  0.0168  0.1502 -0.1256
 1371SOL    HW1 4356   1.839   2.201   3.007  1.4713  1.9218  0.9409
 1371SOL    HW2 4357   1.812   2.350   3.009 -2.3784  1.3440 -0.4299
 1372SOL     OW 4358   1.275   3.556   0.436  0.4426 -0.2258  0.3839
 1372SOL    HW1 4359   1.269   3.648   0.460  1.1829 -0.8172  3.3266
 1372SOL    HW2 4360   1.191   3.536   0.395  0.4665  1.8327 -0.8066
 1373SOL     OW 4361   3.504   0.993   3.103 -0.2440 -0.0897  0.0792
 1373SOL    HW1 4362   3.576   1.027   3.049 -0.8958  0.7450 -0.2843
 1373SOL    HW2 4363   3.511   1.041   3.186 -1.6877  1.6597 -0.7394
 1374SOL     OW 4364   2.156   0.309   1.898  0.2011 -0.1173 -0.2429
 1374SOL    HW1 4365   2.251   0.315   1.905  0.1201  0.1163  0.9586
 1374SOL    HW2 4366   2.134   0.224   1.935 -0.1404  0.3465  0.6583
 1375SOL     OW 4367   2.719   2.653   2.729  0.1144 -0.3881 -0.4194
 1375SOL    HW1 4368   2.763   2.693   2.654  0.9480  0.5127  0.5098
 1375SOL    HW2 4369   2.728   2.559   2.714  1.3833 -0.2228 -0.8390
 1376SOL     OW 4370   2.626   0.554   3.010 -0.6546 -0.3471  0.0534
 1376SOL    HW1 4371   2.579   0.587   3.087  1.2616  1.1895  0.6238
 1376SOL    HW2 4372   2.704   0.511   3.046 -1.9005 -3.6295 -0.8251
 1377SOL     OW 4373   0.550   4.404   0.799 -0.1709 -0.3312 -0.4424
 1377SOL    HW1 4374   0.508   4.332   0.753 -0.1156  0.1550 -1.2869
 1377SOL    HW2 4375   0.643   4.395   0.778  0.2026 -1.4919  1.5419
 1378SOL     OW 4376   4.103   3.222   2.763 -0.1509  0.3895 -0.4508
 1378SOL    HW1 4377   4.059   3.211   2.847 -0.5441 -0.4295 -0.7549
 1378SOL    HW2 4378   4.177   3.162   2.765  0.3389  0.9794 -0.3697
 1379SOL     OW 4379   0.677   3.018   2.003  0.0951 -0.0881 -0.5975
 1379SOL    HW1 4380   0.684   3.108   2.034 -0.6891 -0.1895 -0.0985
 1379SOL    HW2 4381   0.717   2.966   2.073  2.1467 -0.0411 -1.6336
 1380SOL     OW 4382   2.284   0.098   1.151  0.2596 -0.4571 -0.1919
 1380SOL    HW1 4383   2.296   0.173   1.092  1.6168  1.2028  2.0151
 1380SOL    HW2 4384   2.361   0.043   1.136  1.0446  0.3964  0.5378
 1381SOL     OW 4385   2.351   2.992   2.050 -0.4332 -0.3837 -0.0717
 1381SOL    HW1 4386   2.440   2.991   2.084 -0.7135  1.2791  0.8293
 1381SOL    HW2 4387   2.354   2.937   1.972  1.8692  1.2967 -1.2622
 1382SOL     OW 4388   1.133   3.524   3.092  0.6501 -0.1155 -0.7634
 1382SOL    HW1 4389   1.102   3.489   3.009 -1.3892  0.1486 -0.1517
 1382SOL    HW2 4390   1.145   3.618   3.075  2.0861 -0.3490 -1.2377
 1383SOL     OW 4391   3.531   4.183   3.093 -0.1628 -0.0962 -0.2875
 1383SOL    HW1 4392   3.439   4.162   3.107 -0.4624  0.3388 -1.4946
 1383SOL    HW2 4393   3.548   4.160   3.002  1.5781 -2.4504  0.5287
 1384SOL     OW 4394   2.083   1.770   1.533  0.2156  0.1202  0.5917
 1384SOL    HW1 4395   2.139   1.817   1.595  0.1567  0.2543  0.5455
 1384SOL    HW2 4396   2.070   1.832   1.461  0.5858 -0.1746  0.2718
 1385SOL     OW 4397   3.073   0.481   0.170  0.7902 -0.2031  0.1000
 1385SOL    HW1 4398   3.072   0.576   0.182  2.9569 -0.0790 -0.2130
 1385SOL    HW2 4399   3.001   0.463   0.109 -0.5668  1.0303  1.2754
 1386SOL     OW 4400   3.043   1.227   2.044  0.1163  0.2971  0.2210
 1386SOL    HW1 4401   3.055   1.176   2.125  2.5339 -0.4552 -0.5488
 1386SOL    HW2 4402   3.105   1.299   2.051 -0.3513  0.7964 -0.5644
 1387SOL     OW 4403   3.509   2.960   0.846  0.0232 -0.4604 -0.1628
 1387SOL    HW1 4404   3.458   2.932   0.923 -1.4728  0.5479 -0.7356
 1387SOL    HW2 4405   3.477   3.048   0.828  0.3678 -0.6752 -1.9386
 1388SOL     OW 4406   1.084   3.839   1.980  0.4914  0.2149 -0.0764
 1388SOL    HW1 4407   1.019   3.890   1.931 -0.6038 -0.4684  0.6095
 1388SOL    HW2 4408   1.161   3.837   1.923  0.4251  2.2307 -0.3223
 1389SOL     OW 4409   4.106   3.351   2.327 -0.1612 -0.0650 -0.4488
 1389SOL    HW1 4410   4.061   3.392   2.400 -0.3117 -0.5451 -0.2650
 1389SOL    HW2 4411   4.104   3.416   2.257  0.6866  0.7079  0.2284
 1390SOL     OW 4412   2.060   3.231   0.245 -0.5100 -0.2898 -0.4477
 1390SOL    HW1 4413   2.050   3.265   0.156  0.0440  0.8149 -0.0940
 1390SOL    HW2 4414   2.090   3.141   0.232 -1.2574 -0.4341 -1.3815
 1391SOL     OW 4415   1.079   3.803   1.715  0.1668  1.0804 -0.3434
 1391SOL    HW1 4416   1.020   3.859   1.664 -0.6891  0.9534  0.4779
 1391SOL    HW2 4417   1.024   3.731   1.744  0.8457  0.7134  0.0635
 1392SOL     OW 4418   3.631   3.557   0.307  0.2672  0.2434  0.1535
 1392SOL    HW1 4419   3.546   3.547   0.264 -0.3924  1.2758  1.1374
 1392SOL    HW2 4420   3.669   3.635   0.266  0.2014  0.4810  0.5387
 1393SOL     OW 4421   1.710   4.165   1.155  0.0294 -0.1298 -0.2008
 1393SOL    HW1 4422   1.639   4.185   1.215 -0.4674  0.7368 -1.0618
 1393SOL    HW2 4423   1.687   4.080   1.117 -0.1949 -0.1714  0.0308
 1394SOL     OW 4424   1.592   0.260   2.230  0.1881 -0.3109 -0.1486
 1394SOL    HW1 4425   1.558   0.177   2.197  0.6420  0.1446 -1.8906
 1394SOL    HW2 4426   1.665   0.236   2.287  0.0552 -1.1273 -0.3131
 1395SOL     OW 4427   4.239   4.312   0.620 -0.8162 -0.6128 -0.6058
 1395SOL    HW1 4428   4.275   4.394   0.587  0.3023 -1.5269 -1.7254
 1395SOL    HW2 4429   4.249   4.250   0.548 -0.0346 -2.1947  0.7982
 1396SOL     OW 4430   1.570   1.046   0.214  0.0082 -0.7089  0.5845
 1396SOL    HW1 4431   1.610   1.112   0.271 -1.8158  1.1177 -0.1324
 1396SOL    HW2 4432   1.492   1.017   0.262  0.2049 -1.5815  0.4059
 1397SOL     OW 4433   2.384   2.679   2.151  0.0037  0.4416 -0.3353
 1397SOL    HW1 4434   2.390   2.743   2.222  1.9483 -0.3250  0.2465
 1397SOL    HW2 4435   2.355   2.598   2.193  0.7028  0.1089 -0.4780
 1398SOL     OW 4436   2.027   1.521   1.568  0.0155  0.1718  0.6360
 1398SOL    HW1 4437   1.983   1.503   1.652 -1.0666 -0.2564  0.0025
 1398SOL    HW2 4438   2.029   1.616   1.562  0.7411  0.2269  1.4581
 1399SOL     OW 4439   0.170   3.810   0.607 -0.6874 -0.6586  0.2750
 1399SOL    HW1 4440   0.155   3.904   0.613  0.4902 -0.5721  2.3432
 1399SOL    HW2 4441   0.142   3.788   0.517  2.2067  2.2222 -1.5436
 1400SOL     OW 4442   2.892   0.311   1.613 -0.4865 -0.8050  0.0363
 1400SOL    HW1 4443   2.885   0.290   1.520  1.2253  0.5324 -0.4543
 1400SOL    HW2 4444   2.985   0.330   1.626 -1.1063  1.7895  1.3640
 1401SOL     OW 4445   3.866   0.362   1.338 -0.2005  0.3849 -0.3655
 1401SOL    HW1 4446   3.910   0.287   1.378 -0.7164  0.3963  0.2415
 1401SOL    HW2 4447   3.862   0.428   1.407  0.0296  0.8817 -0.8223
 1402SOL     OW 4448   3.066   3.533   2.981 -0.3579 -0.2900 -0.2510
 1402SOL    HW1 4449   3.057   3.620   2.941 -0.4470  0.0425  0.4785
 1402SOL    HW2 4450   2.984   3.489   2.961  0.7325 -1.2798 -3.0908
 1403SOL     OW 4451   0.295   2.258   2.688 -0.9646 -0.0710 -0.4418
 1403SOL    HW1 4452   0.276   2.241   2.780  0.5841 -0.1996 -0.1254
 1403SOL    HW2 4453   0.380   2.217   2.672  0.2197  2.4468 -1.1460
 1404SOL     OW 4454   2.609   3.018   2.132 -0.6672 -0.4589 -0.0282
 1404SOL    HW1 4455   2.577   2.980   2.214 -1.1494 -0.4472 -0.2107
 1404SOL    HW2 4456   2.610   3.113   2.149 -1.0413 -0.4368 -0.1350
 1405SOL     OW 4457   3.341   1.797   2.618  0.4197  0.2177 -0.0788
 1405SOL    HW1 4458   3.343   1.704   2.593  0.5648  0.4160 -0.8326
 1405SOL    HW2 4459   3.272   1.802   2.685 -1.1451 -0.0694 -1.5961
 1406SOL     OW 4460   2.308   3.583   0.398  0.9757 -0.1753  0.1812
 1406SOL    HW1 4461   2.309   3.647   0.327 -0.6539  0.9922  1.1585
 1406SOL    HW2 4462   2.220   3.545   0.395  1.6788 -1.9156  0.0614
 1407SOL     OW 4463   3.126   2.248   2.501 -0.0749  0.5545 -0.4389
 1407SOL    HW1 4464   3.075   2.322   2.533 -0.5535 -0.4859  1.4078
 1407SOL    HW2 4465   3.207   2.287   2.467 -0.6534  1.9660 -0.2602
 1408SOL     OW 4466   0.492   0.573   2.407  0.0704 -0.2765  0.8945
 1408SOL    HW1 4467   0.531   0.645   2.357  0.9474 -1.1905  0.2236
 1408SOL    HW2 4468   0.421   0.542   2.352  0.1833 -0.4117  0.8226
 1409SOL     OW 4469   3.815   0.905   2.818 -0.1196  0.2885 -0.3815
 1409SOL    HW1 4470   3.775   0.831   2.772  0.4488  1.1786 -2.3946
 1409SOL    HW2 4471   3.906   0.904   2.789  0.9131 -0.4463  2.5179
 1410SOL     OW 4472   2.127   1.287   2.079  0.2220  0.0415 -0.4232
 1410SOL    HW1 4473   2.113   1.372   2.121 -2.0347 -0.0658 -0.8443
 1410SOL    HW2 4474   2.166   1.233   2.148  1.0173  1.1816  0.0683
 1411SOL     OW 4475   1.293   3.172   2.337 -0.4125 -0.4059  0.1785
 1411SOL    HW1 4476   1.310   3.172   2.431  0.7999  0.0447 -0.0246
 1411SOL    HW2 4477   1.279   3.080   2.315 -0.6602 -0.5188  0.7768
 1412SOL     OW 4478   1.310   3.970   2.203  0.0321 -0.5352  0.4614
 1412SOL    HW1 4479   1.332   3.876   2.197 -0.8600 -0.7186 -0.0491
 1412SOL    HW2 4480   1.215   3.973   2.193  0.0280  0.4150  0.7134
 1413SOL     OW 4481   0.198   0.641   0.828  0.1017 -0.5819 -0.0294
 1413SOL    HW1 4482   0.208   0.718   0.883  1.6184 -1.3406  0.8162
 1413SOL    HW2 4483   0.230   0.668   0.742  1.2452 -0.4502  0.4316
 1414SOL     OW 4484   4.362   3.393   1.464 -0.5120  0.5902 -0.3406
 1414SOL    HW1 4485   4.316   3.434   1.537 -1.6086 -0.8051 -0.2138
 1414SOL    HW2 4486   4.416   3.325   1.503 -1.1079 -0.1694 -0.8082
 1415SOL     OW 4487   1.752   3.935   1.869  0.2191  0.2000  0.1022
 1415SOL    HW1 4488   1.703   3.931   1.787 -0.1321  1.6635  0.2120
 1415SOL    HW2 4489   1.691   3.903   1.935 -0.0580  0.5571  0.0207
 1416SOL     OW 4490   2.647   2.804   2.959  0.2835  0.1149  0.4803
 1416SOL    HW1 4491   2.698   2.767   3.031  0.3590 -0.0793  0.3309
 1416SOL    HW2 4492   2.696   2.779   2.880  0.4105  0.6588  0.3811
 1417SOL     OW 4493   3.285   2.110   1.693 -0.3709 -0.2072 -0.3502
 1417SOL    HW1 4494   3.286   2.051   1.618 -0.1582 -0.6369 -0.0175
 1417SOL    HW2 4495   3.255   2.055   1.766  0.4374 -0.0759  0.0942
 1418SOL     OW 4496   2.292   2.892   1.350  0.1693  0.0135 -0.2083
 1418SOL    HW1 4497   2.219   2.954   1.341  0.1517  0.0710  0.2796
 1418SOL    HW2 4498   2.351   2.913   1.277  0.3909  0.9287  0.2097
 1419SOL     OW 4499   4.383   2.103   0.083 -1.0183  0.0767  0.0465
 1419SOL    HW1 4500   4.380   2.134   0.173  0.9713 -0.7373  0.4485
 1419SOL    HW2 4501   4.391   2.183   0.030 -0.5377  0.4831  0.7175
 1420SOL     OW 4502   2.450   2.946   1.107  0.3613 -0.5792  0.1215
 1420SOL    HW1 4503   2.535   2.927   1.067  0.1937 -0.6887 -0.1835
 1420SOL    HW2 4504   2.453   3.040   1.126  0.5800 -0.5971  0.1835
 1421SOL     OW 4505   3.728   2.482   2.481  0.3274 -0.2863  0.1157
 1421SOL    HW1 4506   3.780   2.497   2.402  2.1920 -1.6785  1.0117
 1421SOL    HW2 4507   3.676   2.404   2.462 -0.0119 -0.0235 -0.0688
 1422SOL     OW 4508   3.549   2.670   2.117 -0.2625  0.4693  0.3569
 1422SOL    HW1 4509   3.578   2.676   2.026  0.6345 -1.0747  0.5006
 1422SOL    HW2 4510   3.464   2.714   2.119  0.3164  1.6990 -0.9275
 1423SOL     OW 4511   3.952   1.376   0.691 -0.1347 -0.5452  0.5690
 1423SOL    HW1 4512   3.929   1.387   0.599 -0.5058 -3.8486  0.1580
 1423SOL    HW2 4513   3.995   1.458   0.714 -1.6406  1.1304 -1.9894
 1424SOL     OW 4514   2.704   2.393   2.702  0.5028 -0.4679 -0.6334
 1424SOL    HW1 4515   2.623   2.397   2.753  1.3590 -0.9321  0.7981
 1424SOL    HW2 4516   2.713   2.300   2.679 -0.2887 -0.1521 -2.3573
 1425SOL     OW 4517   1.167   0.931   0.191 -0.0504 -0.1122  0.4693
 1425SOL    HW1 4518   1.076   0.930   0.220 -0.7586  1.2540 -1.4861
 1425SOL    HW2 4519   1.181   1.021   0.161  2.0270 -0.2440  0.9263
 1426SOL     OW 4520   0.079   3.596   1.907 -0.1280 -0.1746  1.0464
 1426SOL    HW1 4521   0.107   3.554   1.988  0.8532 -0.8145  0.4053
 1426SOL    HW2 4522   0.123   3.681   1.908  2.4737 -1.3851 -0.2102
 1427SOL     OW 4523   2.924   2.530   0.507 -0.0687  0.0792  0.2483
 1427SOL    HW1 4524   2.983   2.517   0.581  1.6155  0.2027 -1.0169
 1427SOL    HW2 4525   2.871   2.450   0.504  0.7443 -0.4891  0.7965
 1428SOL     OW 4526   1.240   0.764   0.592 -0.9507  0.8111  0.0220
 1428SOL    HW1 4527   1.193   0.731   0.516 -1.1181  0.0789  0.4360
 1428SOL    HW2 4528   1.183   0.833   0.628 -1.1348  0.7648 -0.1805
 1429SOL     OW 4529   1.787   0.096   1.242  0.4471  0.5357 -0.2304
 1429SOL    HW1 4530   1.760   0.157   1.174 -2.0988 -0.0909  0.1100
 1429SOL    HW2 4531   1.820   0.152   1.313 -2.7027  1.7206  0.4704
 1430SOL     OW 4532   0.590   0.830   2.769 -0.3806 -0.3183 -0.2867
 1430SOL    HW1 4533   0.597   0.810   2.863  0.0735 -0.0553 -0.2591
 1430SOL    HW2 4534   0.581   0.745   2.727  0.9411 -0.5620 -0.1239
 1431SOL     OW 4535   3.269   1.707   1.238  0.0638 -0.4333 -0.6005
 1431SOL    HW1 4536   3.277   1.631   1.296 -0.3410  0.3919  0.5642
 1431SOL    HW2 4537   3.179   1.738   1.250  0.6009  1.0000 -0.0660
 1432SOL     OW 4538   1.067   0.664   0.872  0.0102 -0.4069 -0.0861
 1432SOL    HW1 4539   0.991   0.695   0.824 -0.3360 -0.9969  0.0653
 1432SOL    HW2 4540   1.126   0.739   0.875  0.3707 -0.5629 -2.0555
 1433SOL     OW 4541   1.388   1.461   2.568  0.2052 -0.3037  0.6524
 1433SOL    HW1 4542   1.479   1.473   2.541  0.3346  0.1720  1.2758
 1433SOL    HW2 4543   1.356   1.550   2.584 -0.2688 -0.4912  0.7460
 1434SOL     OW 4544   4.046   2.249   1.899 -0.1342 -0.0428  0.6914
 1434SOL    HW1 4545   4.119   2.203   1.939 -0.8151 -1.0393  0.8424
 1434SOL    HW2 4546   4.057   2.234   1.805 -0.7188 -1.1392  0.7747
 1435SOL     OW 4547   2.654   3.209   2.836  0.2464 -0.5927  0.0153
 1435SOL    HW1 4548   2.613   3.134   2.792  0.2025 -0.3227 -0.4015
 1435SOL    HW2 4549   2.676   3.175   2.923 -2.2856 -0.3102  0.8490
 1436SOL     OW 4550   2.410   0.626   2.823  0.3590  0.1265  0.4821
 1436SOL    HW1 4551   2.380   0.662   2.740  0.9929  1.3400  0.7516
 1436SOL    HW2 4552   2.378   0.535   2.824  1.3209 -0.2842 -1.5936
 1437SOL     OW 4553   0.629   0.802   0.232 -0.3409 -0.4570  0.4708
 1437SOL    HW1 4554   0.670   0.721   0.262  1.8884  0.9506  1.4559
 1437SOL    HW2 4555   0.701   0.854   0.197 -1.5335  1.4880  0.7595
 1438SOL     OW 4556   3.043   1.034   2.230 -0.5276  0.5502 -0.4463
 1438SOL    HW1 4557   3.051   0.942   2.255  1.4411  0.9517  0.5926
 1438SOL    HW2 4558   2.949   1.051   2.230 -0.8299 -0.8193  1.8582
 1439SOL     OW 4559   3.787   4.194   2.295  0.1758 -0.6001  0.4298
 1439SOL    HW1 4560   3.798   4.289   2.294 -0.9524 -0.4343  1.4231
 1439SOL    HW2 4561   3.759   4.172   2.206 -0.9794  0.1996  0.5772
 1440SOL     OW 4562   2.188   3.952   0.991 -0.3723 -0.1788  0.9438
 1440SOL    HW1 4563   2.201   3.953   0.896 -1.1498 -1.4239  0.8021
 1440SOL    HW2 4564   2.169   4.044   1.013  0.5513  0.2602  0.0264
 1441SOL     OW 4565   2.996   3.564   1.000 -1.1107 -0.1669  0.2923
 1441SOL    HW1 4566   2.971   3.518   0.920  1.0140 -1.2632  0.1882
 1441SOL    HW2 4567   3.057   3.631   0.972 -0.8795 -0.1020  0.9257
 1442SOL     OW 4568   2.148   3.712   1.685 -0.5928  0.2806  0.3084
 1442SOL    HW1 4569   2.066   3.739   1.727 -1.0896 -0.9243  0.1616
 1442SOL    HW2 4570   2.130   3.623   1.655  1.0943 -0.3614  1.1226
 1443SOL     OW 4571   1.621   2.054   1.787 -0.0092  0.6220 -0.1243
 1443SOL    HW1 4572   1.588   2.009   1.709 -0.0321 -0.4865  0.4993
 1443SOL    HW2 4573   1.575   2.138   1.787 -0.3873  0.4346 -1.0202
 1444SOL     OW 4574   2.830   1.354   1.953  0.0948 -0.4231 -0.1787
 1444SOL    HW1 4575   2.893   1.306   2.005  0.0069 -0.1867  0.1463
 1444SOL    HW2 4576   2.754   1.295   1.946 -1.0601  0.6269  2.4022
 1445SOL     OW 4577   2.277   2.348   0.976 -0.1280 -0.3260 -0.5566
 1445SOL    HW1 4578   2.222   2.424   0.991 -2.3934 -1.2978 -3.1262
 1445SOL    HW2 4579   2.274   2.299   1.058 -1.8370  0.4648 -0.1197
 1446SOL     OW 4580   1.742   0.204   0.992 -0.1077  0.4836 -0.1424
 1446SOL    HW1 4581   1.827   0.221   0.950  1.7393 -0.6969  2.7867
 1446SOL    HW2 4582   1.711   0.291   1.017 -0.2136  1.0023 -1.8975
 1447SOL     OW 4583   3.926   1.901   2.244  0.1044 -0.4973 -0.0649
 1447SOL    HW1 4584   3.965   1.833   2.298 -0.7583 -0.0102  1.2102
 1447SOL    HW2 4585   3.943   1.873   2.154  1.5397 -1.3374  0.4403
 1448SOL     OW 4586   2.925   1.767   0.872  0.1940 -0.3638  0.3633
 1448SOL    HW1 4587   2.895   1.833   0.935  0.0317  1.3434 -1.4243
 1448SOL    HW2 4588   2.848   1.744   0.821  0.6661 -0.4462 -0.3297
 1449SOL     OW 4589   1.979   2.102   2.987 -0.3506 -0.4433 -0.0956
 1449SOL    HW1 4590   2.042   2.089   2.915 -0.3975 -2.1726  0.1263
 1449SOL    HW2 4591   1.954   2.013   3.012 -1.8389  0.1905  0.7538
 1450SOL     OW 4592   0.742   2.837   0.382  0.1314  0.1825 -0.5840
 1450SOL    HW1 4593   0.809   2.866   0.444  2.3250 -2.5986 -1.4357
 1450SOL    HW2 4594   0.760   2.888   0.302 -1.6346  2.5403  0.4020
 1451SOL     OW 4595   2.343   4.118   0.565  0.4046 -0.2868 -0.1567
 1451SOL    HW1 4596   2.344   4.025   0.542  0.2638 -0.9947  2.3098
 1451SOL    HW2 4597   2.289   4.122   0.644  2.5481  1.4454  1.3580
 1452SOL     OW 4598   0.184   2.830   0.953 -0.2702 -0.1658 -0.2732
 1452SOL    HW1 4599   0.137   2.877   0.885 -0.1072  0.5861  0.1267
 1452SOL    HW2 4600   0.216   2.898   1.012  2.2507 -0.5373 -1.0900
 1453SOL     OW 4601   1.547   2.233   0.038 -0.5612 -0.0274 -0.0948
 1453SOL    HW1 4602   1.559   2.185   0.120 -0.1076  0.0683 -0.1072
 1453SOL    HW2 4603   1.511   2.318   0.064  0.0095  0.1744  0.0416
 1454SOL     OW 4604   0.532   0.649   0.764 -0.0721 -0.4352 -0.2235
 1454SOL    HW1 4605   0.480   0.580   0.803 -0.4735 -0.8687 -1.4837
 1454SOL    HW2 4606   0.566   0.611   0.683  2.9431 -0.4756  0.9337
 1455SOL     OW 4607   3.367   0.093   2.137  0.2873  0.1543  0.0048
 1455SOL    HW1 4608   3.452   0.076   2.097 -0.0840 -2.3537  0.1010
 1455SOL    HW2 4609   3.306   0.039   2.087 -1.5114  2.7540 -0.7961
 1456SOL     OW 4610   1.930   0.769   1.785  0.4494  0.1434 -0.2776
 1456SOL    HW1 4611   1.977   0.694   1.822  0.4349  0.1667 -0.2132
 1456SOL    HW2 4612   1.888   0.734   1.706  0.5015  0.1012 -0.2869
 1457SOL     OW 4613   2.660   4.019   0.594 -0.2973 -0.0891 -0.1083
 1457SOL    HW1 4614   2.569   4.047   0.601 -0.5237 -0.8525  0.0805
 1457SOL    HW2 4615   2.681   3.984   0.680  0.5038  1.0149  0.1680
 1458SOL     OW 4616   0.231   2.439   2.442 -0.1165  0.3775 -0.7588
 1458SOL    HW1 4617   0.275   2.509   2.395  0.7715 -0.0630 -0.6047
 1458SOL    HW2 4618   0.287   2.421   2.518 -0.2334 -0.6092 -0.8860
 1459SOL     OW 4619   0.594   3.351   1.274 -1.0034  0.1056  0.4518
 1459SOL    HW1 4620   0.582   3.263   1.238 -1.5538  0.8480 -1.3295
 1459SOL    HW2 4621   0.543   3.350   1.355 -0.4713 -1.3886  0.8099
 1460SOL     OW 4622   2.637   2.518   2.025 -0.1839  0.6082 -0.2436
 1460SOL    HW1 4623   2.699   2.478   2.085 -1.1387 -0.8943 -0.2056
 1460SOL    HW2 4624   2.604   2.595   2.072  0.8159  0.7874  0.1708
 1461SOL     OW 4625   2.448   0.081   2.557 -0.1093 -0.0617  0.0219
 1461SOL    HW1 4626   2.528   0.032   2.542 -0.2594 -0.8674  1.5889
 1461SOL    HW2 4627   2.460   0.163   2.509  1.9649  0.1531  0.8152
 1462SOL     OW 4628   4.151   2.780   0.841  0.0331 -0.1649 -0.1161
 1462SOL    HW1 4629   4.181   2.759   0.930 -0.6119  0.3445  0.2309
 1462SOL    HW2 4630   4.137   2.695   0.800 -0.2237 -0.4147  0.4700
 1463SOL     OW 4631   4.245   3.004   2.883  0.2628  0.0376  0.1409
 1463SOL    HW1 4632   4.197   3.028   2.962 -0.7490  3.3736 -1.3288
 1463SOL    HW2 4633   4.337   3.018   2.906  0.1727 -1.0940  1.3164
 1464SOL     OW 4634   1.724   0.846   2.974 -0.2611 -0.5456 -0.1408
 1464SOL    HW1 4635   1.655   0.876   3.032  0.8890  2.3491 -0.1251
 1464SOL    HW2 4636   1.691   0.763   2.939 -1.8325 -1.4630  3.0825
 1465SOL     OW 4637   3.920   1.562   2.058  0.4380 -0.1156 -0.2006
 1465SOL    HW1 4638   3.891   1.576   1.967  0.3488  1.0018 -0.0195
 1465SOL    HW2 4639   4.008   1.600   2.061  1.2420 -1.8705 -0.2816
 1466SOL     OW 4640   1.572   3.952   0.506 -0.4130  0.1321  0.7445
 1466SOL    HW1 4641   1.564   3.898   0.585 -0.8971 -0.1408  0.5189
 1466SOL    HW2 4642   1.581   4.041   0.538  0.2675 -0.0659  1.1252
 1467SOL     OW 4643   3.725   3.706   2.358  0.6525  0.1677 -0.1081
 1467SOL    HW1 4644   3.716   3.681   2.450  1.3238  0.7911  0.1371
 1467SOL    HW2 4645   3.808   3.667   2.331 -0.0592 -0.9458 -0.7821
 1468SOL     OW 4646   3.412   2.155   0.318 -0.0834 -0.4267 -0.3473
 1468SOL    HW1 4647   3.417   2.137   0.412 -1.1030  1.2656  0.0673
 1468SOL    HW2 4648   3.385   2.247   0.312  2.6841  0.3884 -2.2943
 1469SOL     OW 4649   1.910   1.170   1.803 -0.2996  0.2988 -0.0097
 1469SOL    HW1 4650   1.847   1.177   1.875 -1.5571  0.5681 -1.0776
 1469SOL    HW2 4651   1.956   1.254   1.803  0.5619 -0.1394  1.1846
 1470SOL     OW 4652   1.215   0.418   0.675  0.7266  0.5584 -0.1928
 1470SOL    HW1 4653   1.140   0.466   0.643  1.7853  1.7822 -0.9214
 1470SOL    HW2 4654   1.232   0.352   0.608 -0.0768 -0.1717  0.2975
 1471SOL     OW 4655   1.413   1.340   0.032  0.2354 -0.2104  0.1807
 1471SOL    HW1 4656   1.508   1.345   0.044  0.3317 -1.3018 -0.0047
 1471SOL    HW2 4657   1.402   1.314  -0.059 -0.1752 -1.4342  0.5513
 1472SOL     OW 4658   1.768   1.752   0.395 -0.0693  0.7491  0.6477
 1472SOL    HW1 4659   1.673   1.761   0.391 -0.4029 -1.9207  0.7276
 1472SOL    HW2 4660   1.801   1.831   0.353 -2.3508  1.2022 -0.4745
 1473SOL     OW 4661   4.297   2.913   2.174 -0.2549 -0.1899  0.3556
 1473SOL    HW1 4662   4.322   2.860   2.250  0.3208  2.5077  2.1984
 1473SOL    HW2 4663   4.378   2.923   2.124 -0.3170 -0.8005  0.1181
 1474SOL     OW 4664   2.360   2.323   2.600 -0.2872 -0.5377  0.0477
 1474SOL    HW1 4665   2.326   2.263   2.667 -0.8695  1.4006  1.5882
 1474SOL    HW2 4666   2.349   2.410   2.638  2.7794  0.4704 -1.0570
 1475SOL     OW 4667   3.578   0.910   0.127 -0.6302  0.7080  0.4888
 1475SOL    HW1 4668   3.510   0.976   0.115 -1.2095  0.2902  1.4035
 1475SOL    HW2 4669   3.539   0.844   0.184  0.4215  0.2761  0.7413
 1476SOL     OW 4670   4.120   1.773   0.967 -0.6694  0.0033 -0.2970
 1476SOL    HW1 4671   4.067   1.778   1.047 -0.6156 -0.5182 -0.2221
 1476SOL    HW2 4672   4.188   1.839   0.980 -0.9224  0.2332 -0.1109
 1477SOL     OW 4673   3.367   1.227   2.823 -0.3373 -0.0815 -0.1225
 1477SOL    HW1 4674   3.443   1.188   2.866 -0.9481  0.6479  1.7071
 1477SOL    HW2 4675   3.292   1.190   2.869 -1.1197 -0.5534 -1.6996
 1478SOL     OW 4676   2.297   1.859   1.692 -0.3460  0.2334  0.0537
 1478SOL    HW1 4677   2.274   1.943   1.731  0.2069  1.4438 -2.0941
 1478SOL    HW2 4678   2.389   1.845   1.718 -0.4935  0.1824  0.5632
 1479SOL     OW 4679   3.015   3.993   2.496 -0.2725 -0.3991  0.0855
 1479SOL    HW1 4680   3.057   4.079   2.496  0.3569 -0.6841 -1.2472
 1479SOL    HW2 4681   3.057   3.946   2.424 -1.7300 -1.2817 -0.2187
 1480SOL     OW 4682   1.372   3.949   1.944  0.0538  0.1546 -0.0057
 1480SOL    HW1 4683   1.347   4.029   1.897 -0.1910 -0.0980 -0.3085
 1480SOL    HW2 4684   1.352   3.967   2.036 -2.2116 -0.4082 -0.3416
 1481SOL     OW 4685   1.665   2.476   2.693 -0.1345  0.1855  0.2108
 1481SOL    HW1 4686   1.675   2.476   2.788 -0.4503 -1.3781  0.2846
 1481SOL    HW2 4687   1.591   2.534   2.676 -0.6217 -0.1810  1.0084
 1482SOL     OW 4688   0.870   3.540   2.942 -0.1859  0.9978  0.1646
 1482SOL    HW1 4689   0.782   3.508   2.921  0.7433  0.0049 -2.5878
 1482SOL    HW2 4690   0.878   3.622   2.893  0.0503  1.7509  1.3991
 1483SOL     OW 4691   2.267   0.807   2.541  0.0868 -0.7035 -0.2318
 1483SOL    HW1 4692   2.183   0.834   2.505 -0.8412 -2.1290  0.7944
 1483SOL    HW2 4693   2.332   0.851   2.486 -1.2904 -1.1807 -2.3232
 1484SOL     OW 4694   4.312   4.117   0.805 -0.6228 -0.0479  0.0055
 1484SOL    HW1 4695   4.277   4.051   0.746 -0.6063 -1.2642  1.2847
 1484SOL    HW2 4696   4.262   4.196   0.786 -1.2039 -0.6474 -1.0217
 1485SOL     OW 4697   4.176   1.171   2.765 -0.1874  0.0093  0.1983
 1485SOL    HW1 4698   4.151   1.263   2.753  0.6667  0.5567  2.2100
 1485SOL    HW2 4699   4.093   1.123   2.759 -0.6021  0.8331 -1.2738
 1486SOL     OW 4700   2.801   2.300   1.744  0.4628 -0.1502  0.5950
 1486SOL    HW1 4701   2.725   2.324   1.690  0.4510 -0.1458  0.6134
 1486SOL    HW2 4702   2.839   2.384   1.771  0.4763 -0.1522  0.5824
 1487SOL     OW 4703   0.693   0.960   1.999 -0.2170  0.0243 -0.5793
 1487SOL    HW1 4704   0.692   0.888   2.062 -0.9303 -0.9941 -1.7169
 1487SOL    HW2 4705   0.608   0.956   1.957 -0.4839  1.9061 -0.3018
 1488SOL     OW 4706   1.489   4.207   2.782  0.1956  0.3916  0.4660
 1488SOL    HW1 4707   1.446   4.262   2.716 -0.0508  0.9005  1.0411
 1488SOL    HW2 4708   1.436   4.127   2.785  0.6098  0.0664 -0.4419
 1489SOL     OW 4709   1.787   4.080   0.800  0.5051  0.1902 -0.0725
 1489SOL    HW1 4710   1.788   4.021   0.875 -1.1311  0.9146  0.5568
 1489SOL    HW2 4711   1.832   4.159   0.830 -1.0546  0.8906  0.5598
 1490SOL     OW 4712   2.202   0.018   1.465  0.1860 -0.4790 -0.8787
 1490SOL    HW1 4713   2.157   0.007   1.381 -1.9385 -2.2774  0.4113
 1490SOL    HW2 4714   2.167   0.100   1.500  0.1622 -0.3525 -1.1971
 1491SOL     OW 4715   0.114   2.024   2.770  0.0024 -0.0017 -0.2541
 1491SOL    HW1 4716   0.200   2.013   2.730 -0.5871 -0.9010 -1.3110
 1491SOL    HW2 4717   0.130   2.081   2.845  1.4684  0.0749 -0.5978
 1492SOL     OW 4718   4.014   4.097   2.210  0.1184  0.0012 -0.4028
 1492SOL    HW1 4719   4.065   4.171   2.244  0.6193  0.3065 -1.7680
 1492SOL    HW2 4720   3.925   4.113   2.241  0.6312  0.0023  1.1617
 1493SOL     OW 4721   0.400   3.510   2.163  0.0536  0.3984  0.4804
 1493SOL    HW1 4722   0.402   3.567   2.086 -0.0893 -1.2705 -0.8171
 1493SOL    HW2 4723   0.490   3.511   2.196  0.7669 -0.9099 -1.3074
 1494SOL     OW 4724   1.352   3.352   0.815  0.0096  0.9303 -0.5027
 1494SOL    HW1 4725   1.341   3.438   0.855 -1.5712  1.2063 -1.4633
 1494SOL    HW2 4726   1.367   3.293   0.888 -1.4495  1.6256  0.4029
 1495SOL     OW 4727   3.438   0.768   1.849 -1.0089  0.5906  0.1105
 1495SOL    HW1 4728   3.457   0.682   1.888  0.1585  0.4650 -0.6593
 1495SOL    HW2 4729   3.524   0.810   1.844 -1.6576  2.0871  1.0751
 1496SOL     OW 4730   2.460   1.223   1.996  0.3633 -1.0554 -0.2141
 1496SOL    HW1 4731   2.415   1.140   2.010  2.1915 -2.3521 -1.5095
 1496SOL    HW2 4732   2.463   1.233   1.901 -0.0234  0.6360 -0.0814
 1497SOL     OW 4733   0.520   4.122   1.361  0.3560 -0.1179 -0.1972
 1497SOL    HW1 4734   0.428   4.100   1.345  0.3454 -0.2388  0.0233
 1497SOL    HW2 4735   0.523   4.217   1.362  0.2693 -0.1127 -0.4162
 1498SOL     OW 4736   1.635   0.810   0.445  0.1013 -0.0824 -0.1295
 1498SOL    HW1 4737   1.698   0.851   0.387  0.1276 -1.8698 -1.4491
 1498SOL    HW2 4738   1.552   0.854   0.425  0.6042  1.2014  0.5028
 1499SOL     OW 4739   0.022   1.207   2.824 -0.1153  0.5045  0.2059
 1499SOL    HW1 4740  -0.071   1.188   2.814 -0.8957  3.5585  0.6599
 1499SOL    HW2 4741   0.059   1.194   2.736 -0.8363 -1.1866  0.1264
 1500SOL     OW 4742   1.409   1.120   2.784 -0.0773 -0.0852  0.1466
 1500SOL    HW1 4743   1.485   1.176   2.797 -0.7699  1.6500 -2.4223
 1500SOL    HW2 4744   1.443   1.041   2.742  0.3733  0.6642 -0.9548
 1501SOL     OW 4745   1.903   1.718   0.662  0.7357  0.0190  0.5568
 1501SOL    HW1 4746   1.894   1.623   0.649  1.8624 -0.1455  0.8339
 1501SOL    HW2 4747   1.865   1.756   0.583  0.6579 -0.6817  0.2445
 1502SOL     OW 4748   0.121   2.371   1.668  0.0109  0.3560  0.4485
 1502SOL    HW1 4749   0.185   2.441   1.656  0.2755 -0.0066 -0.2860
 1502SOL    HW2 4750   0.147   2.303   1.606 -0.9328  0.0957  0.3239
 1503SOL     OW 4751   1.438   2.575   2.559 -0.3128  0.4240 -0.2892
 1503SOL    HW1 4752   1.345   2.574   2.536 -0.2296  0.4134 -0.6303
 1503SOL    HW2 4753   1.442   2.623   2.641 -0.4510  1.7693 -1.0359
 1504SOL     OW 4754   3.208   0.467   2.402 -0.8603  0.5598 -0.2218
 1504SOL    HW1 4755   3.261   0.528   2.351  0.2082 -0.1293  0.0505
 1504SOL    HW2 4756   3.189   0.395   2.341  3.5588 -2.1551  1.1959
 1505SOL     OW 4757   1.677   1.873   2.699 -0.3113 -0.0449  0.1869
 1505SOL    HW1 4758   1.599   1.879   2.644  0.9197 -0.1014 -1.6658
 1505SOL    HW2 4759   1.718   1.960   2.693  1.4439 -0.8915 -1.6216
 1506SOL     OW 4760   3.669   1.542   1.698  0.3288 -0.2589 -0.5016
 1506SOL    HW1 4761   3.746   1.598   1.702  1.7287 -2.0728 -0.8564
 1506SOL    HW2 4762   3.691   1.476   1.632 -1.8508 -0.3946 -1.1921
 1507SOL     OW 4763   0.345   1.488   0.526 -0.1922  0.2754  0.2190
 1507SOL    HW1 4764   0.431   1.526   0.543 -0.8911  2.6663 -1.0613
 1507SOL    HW2 4765   0.354   1.445   0.441 -0.0715 -0.1737  0.4563
 1508SOL     OW 4766   3.038   1.699   3.022 -0.1645  0.2977 -0.3142
 1508SOL    HW1 4767   2.970   1.765   3.010 -1.9059 -1.5263 -1.0146
 1508SOL    HW2 4768   3.041   1.685   3.117 -1.1741 -0.0001 -0.3208
 1509SOL     OW 4769   2.453   4.042   1.953  0.3980 -0.1639  0.1533
 1509SOL    HW1 4770   2.402   3.976   1.905  0.6150 -0.2557  0.0505
 1509SOL    HW2 4771   2.516   3.991   2.004  0.1564 -0.0688  0.5526
 1510SOL     OW 4772   1.898   4.025   0.531 -0.4632 -0.0911  0.0494
 1510SOL    HW1 4773   1.881   4.056   0.621  0.1842 -2.0627  0.8973
 1510SOL    HW2 4774   1.891   3.930   0.537  2.5367 -0.5132 -1.2945
 1511SOL     OW 4775   1.759   3.032   1.018  0.7289 -0.0085 -0.3109
 1511SOL    HW1 4776   1.844   3.033   0.975  1.0295  1.1752  0.2673
 1511SOL    HW2 4777   1.706   2.972   0.965  1.6363 -0.0271 -1.2237
 1512SOL     OW 4778   1.806   2.845   2.796 -0.3616 -0.3845 -0.6224
 1512SOL    HW1 4779   1.781   2.890   2.876  0.8455  1.3595 -1.1677
 1512SOL    HW2 4780   1.857   2.769   2.826  0.7185  0.6576  0.2748
 1513SOL     OW 4781   3.017   0.873   0.880 -0.3911  0.4659  0.5344
 1513SOL    HW1 4782   2.937   0.903   0.925 -0.6736 -0.0641  0.3948
 1513SOL    HW2 4783   3.076   0.948   0.883 -1.7648  1.7217 -1.4787
 1514SOL     OW 4784   3.109   4.417   2.693  0.3244  0.0821 -0.0846
 1514SOL    HW1 4785   3.134   4.359   2.620 -2.1225 -1.3014  0.0859
 1514SOL    HW2 4786   3.014   4.414   2.695  0.2699  1.1120  2.4067
 1515SOL     OW 4787   2.554   1.493   1.822  0.0427  0.5840  0.8119
 1515SOL    HW1 4788   2.636   1.499   1.872  1.0480 -0.8156 -0.5742
 1515SOL    HW2 4789   2.563   1.413   1.771 -2.1190  0.5268  0.4302
 1516SOL     OW 4790   3.836   1.934   0.480 -0.0953 -0.2581  0.4456
 1516SOL    HW1 4791   3.899   2.003   0.458  0.4494 -0.4315  1.4212
 1516SOL    HW2 4792   3.888   1.869   0.527 -0.5177 -1.5357 -0.8006
 1517SOL     OW 4793   0.733   2.291   1.423  0.5381 -0.1786 -0.0133
 1517SOL    HW1 4794   0.814   2.281   1.472 -0.7675 -0.1947  2.3369
 1517SOL    HW2 4795   0.692   2.204   1.426 -0.3509  0.2334  0.3991
 1518SOL     OW 4796   1.002   3.733   0.744  0.2059  0.2034 -0.1851
 1518SOL    HW1 4797   1.050   3.667   0.793 -0.1020 -0.7921 -1.2043
 1518SOL    HW2 4798   0.916   3.736   0.786  0.7852  1.2999  1.0212
 1519SOL     OW 4799   2.134   1.701   0.372  0.2424 -0.0144 -0.1527
 1519SOL    HW1 4800   2.178   1.617   0.359  0.3035 -0.0450  0.2427
 1519SOL    HW2 4801   2.057   1.696   0.316  1.0291  0.2701 -1.3054
 1520SOL     OW 4802   3.625   1.797   0.374  0.2871 -0.2738  0.3696
 1520SOL    HW1 4803   3.565   1.836   0.438 -0.6541  1.1711 -1.2934
 1520SOL    HW2 4804   3.709   1.839   0.391  0.4304 -1.0128  1.5888
 1521SOL     OW 4805   2.319   0.107   2.804 -0.5398 -0.0089 -0.0391
 1521SOL    HW1 4806   2.324   0.019   2.842  1.8048  0.8236  1.8077
 1521SOL    HW2 4807   2.370   0.100   2.723  0.4868 -0.1760  0.5971
 1522SOL     OW 4808   4.299   0.380   2.291  0.4063 -0.3111 -0.4332
 1522SOL    HW1 4809   4.355   0.444   2.247  1.9763  0.5793  2.5909
 1522SOL    HW2 4810   4.357   0.306   2.310 -0.2687 -0.7509 -0.0269
 1523SOL     OW 4811   2.036   0.403   2.965  0.4261  0.2159 -0.5823
 1523SOL    HW1 4812   1.989   0.472   3.011  0.0233  0.0075 -0.6689
 1523SOL    HW2 4813   1.971   0.367   2.904  0.6369 -0.2165 -0.5568
 1524SOL     OW 4814   3.236   2.051   0.930 -0.4488  0.6030  0.3987
 1524SOL    HW1 4815   3.313   1.995   0.917 -0.5311  0.6583 -0.3759
 1524SOL    HW2 4816   3.198   2.021   1.013 -0.2630 -0.2234  0.1945
 1525SOL     OW 4817   3.740   0.935   2.301  0.2609  0.0278  0.3684
 1525SOL    HW1 4818   3.749   0.857   2.355  1.3498 -0.6633 -0.7498
 1525SOL    HW2 4819   3.646   0.953   2.299  0.0814 -0.7802  1.2878
 1526SOL     OW 4820   0.092   3.204   1.166  0.0578 -0.3977 -0.1320
 1526SOL    HW1 4821   0.057   3.289   1.195 -1.3514 -1.0511  0.1725
 1526SOL    HW2 4822   0.015   3.149   1.156  0.8470 -1.3079 -1.5053
 1527SOL     OW 4823   0.597   0.293   0.695 -0.2128  0.4948  0.6640
 1527SOL    HW1 4824   0.526   0.353   0.675  1.0751  1.6958 -0.5304
 1527SOL    HW2 4825   0.556   0.207   0.697 -1.7667  1.1994  0.4715
 1528SOL     OW 4826   2.659   0.029   1.643  0.1597  0.3776 -0.2601
 1528SOL    HW1 4827   2.733   0.070   1.687 -0.8871  0.4746  1.4896
 1528SOL    HW2 4828   2.620  -0.029   1.708 -1.7711  0.9250 -0.8363
 1529SOL     OW 4829   1.036   2.878   0.299 -0.4124 -0.0761  0.1044
 1529SOL    HW1 4830   1.003   2.965   0.323 -1.5880 -0.4511 -0.1166
 1529SOL    HW2 4831   1.095   2.895   0.225 -0.0007  0.6087  0.5652
 1530SOL     OW 4832   3.417   2.209   0.605  0.2409 -0.3428  0.3778
 1530SOL    HW1 4833   3.326   2.199   0.635 -0.7628  1.4947 -1.8233
 1530SOL    HW2 4834   3.464   2.238   0.683 -1.2699 -0.2680  1.3077
 1531SOL     OW 4835  -0.015   2.189   1.427 -0.0930 -0.3794 -0.6066
 1531SOL    HW1 4836  -0.039   2.275   1.394  2.4929  1.0526  0.9588
 1531SOL    HW2 4837   0.078   2.195   1.447 -0.6411 -2.1321  3.5922
 1532SOL     OW 4838   0.529   2.375   0.641  0.0803 -0.0159  0.3558
 1532SOL    HW1 4839   0.527   2.305   0.705  3.4104 -0.6250 -0.0461
 1532SOL    HW2 4840   0.555   2.453   0.690  0.4979  0.0057  0.1027
 1533SOL     OW 4841   0.124   3.613   2.926  0.0592  0.2465 -0.5552
 1533SOL    HW1 4842   0.173   3.644   3.003 -1.7130  1.0020  0.3409
 1533SOL    HW2 4843   0.036   3.595   2.960 -0.3418 -0.9421 -2.1202
 1534SOL     OW 4844   2.527   3.711   0.033 -0.1306  0.0289 -0.3605
 1534SOL    HW1 4845   2.588   3.721   0.106 -0.0633  0.2689 -0.4503
 1534SOL    HW2 4846   2.564   3.640  -0.019 -0.4390 -0.4801  0.1006
 1535SOL     OW 4847   4.124   1.052   0.231 -0.2194 -0.3401  0.7324
 1535SOL    HW1 4848   4.040   1.097   0.234 -1.1016 -1.9133  0.4156
 1535SOL    HW2 4849   4.107   0.972   0.181  1.8065  0.0042 -0.6424
 1536SOL     OW 4850   2.024   0.470   1.536  0.5718 -0.4091 -1.0830
 1536SOL    HW1 4851   2.071   0.551   1.517 -0.7569  1.1670  1.6819
 1536SOL    HW2 4852   1.945   0.498   1.582  0.4071 -3.2690  0.6519
 1537SOL     OW 4853   0.888   0.748   2.520 -0.5001  0.3878 -0.5184
 1537SOL    HW1 4854   0.872   0.824   2.575 -2.2289  0.1829 -0.6953
 1537SOL    HW2 4855   0.910   0.678   2.581 -0.3405  0.6574 -0.2611
 1538SOL     OW 4856   0.237   4.324   1.665  0.2867  0.5610  0.2384
 1538SOL    HW1 4857   0.287   4.243   1.674 -0.9902 -0.1482  1.2244
 1538SOL    HW2 4858   0.281   4.386   1.724 -0.8444 -0.5235  2.3364
 1539SOL     OW 4859   0.239   3.783   2.764 -0.5938  0.5334 -0.0576
 1539SOL    HW1 4860   0.315   3.730   2.739 -0.6532 -1.0348  2.7083
 1539SOL    HW2 4861   0.190   3.727   2.824 -3.1349  2.1052 -0.5120
 1540SOL     OW 4862   0.511   1.220   3.098 -0.3370 -0.0072 -0.2644
 1540SOL    HW1 4863   0.525   1.130   3.068  0.6965  0.6766 -2.0108
 1540SOL    HW2 4864   0.459   1.211   3.178  0.1200 -2.1653 -0.1480
 1541SOL     OW 4865   4.029   0.213   0.087 -0.5069  0.1563  0.1094
 1541SOL    HW1 4866   4.020   0.301   0.123 -1.4617  1.1963 -2.4485
 1541SOL    HW2 4867   3.956   0.164   0.124  0.1702  0.3077  1.7401
 1542SOL     OW 4868   3.489   4.138   2.789 -0.4340 -0.0961  0.2894
 1542SOL    HW1 4869   3.403   4.175   2.806 -0.1850  0.0170  1.3664
 1542SOL    HW2 4870   3.502   4.150   2.695 -1.2155  0.6799  0.2656
 1543SOL     OW 4871   2.006   2.662   2.890  0.1088 -0.5455 -0.2514
 1543SOL    HW1 4872   2.068   2.728   2.861 -0.3421 -0.3108 -0.6963
 1543SOL    HW2 4873   2.016   2.660   2.985  0.6076 -0.3293 -0.2957
 1544SOL     OW 4874   4.421   3.598   0.926 -0.0480 -0.5745  0.3359
 1544SOL    HW1 4875   4.346   3.657   0.922 -0.0125 -0.5267  0.3670
 1544SOL    HW2 4876   4.424   3.555   0.841 -0.7104 -1.3124  0.6727
 1545SOL     OW 4877   4.270   0.085   1.660 -0.7168 -0.3435  0.2283
 1545SOL    HW1 4878   4.308   0.157   1.711  0.1595 -0.4567 -0.2312
 1545SOL    HW2 4879   4.326   0.009   1.681  0.8651  0.0204 -2.2757
 1546SOL     OW 4880   2.889   0.210   1.283  0.2223  0.5734  0.9529
 1546SOL    HW1 4881   2.960   0.235   1.224 -0.7331  0.4132 -0.3122
 1546SOL    HW2 4882   2.928   0.146   1.342  1.3380  1.1318  0.8450
 1547SOL     OW 4883   0.424   3.324  -0.000  0.5546 -0.1648 -0.1311
 1547SOL    HW1 4884   0.328   3.324   0.002  0.5546 -0.5433  0.0777
 1547SOL    HW2 4885   0.448   3.233   0.016  0.9343 -0.2662 -1.1883
 1548SOL     OW 4886   0.159   0.632   1.699  0.2355 -0.0456  0.1481
 1548SOL    HW1 4887   0.151   0.539   1.682  0.5502 -0.2166  0.8974
 1548SOL    HW2 4888   0.180   0.638   1.793  3.4532  0.5837 -0.4715
 1549SOL     OW 4889   1.212   0.502   1.981 -0.0055  0.6688 -0.2699
 1549SOL    HW1 4890   1.213   0.415   2.022 -0.3751  0.4160 -0.7826
 1549SOL    HW2 4891   1.150   0.552   2.033 -2.0464 -0.2483 -1.6559
 1550SOL     OW 4892   2.642   1.537   2.849 -0.2773 -0.1222  0.8906
 1550SOL    HW1 4893   2.638   1.511   2.756  0.1755  0.9872  0.5436
 1550SOL    HW2 4894   2.735   1.531   2.871 -0.0425  1.7786  0.5978
 1551SOL     OW 4895   0.719   3.218   0.653  0.4123 -0.3116 -0.4767
 1551SOL    HW1 4896   0.780   3.261   0.593  0.8291  1.2095  0.9710
 1551SOL    HW2 4897   0.664   3.289   0.686 -0.0897 -1.1743  0.6090
 1552SOL     OW 4898   1.650   3.004   0.242  0.4389 -0.1355  0.1499
 1552SOL    HW1 4899   1.624   3.056   0.166  0.4241 -1.5586 -0.8559
 1552SOL    HW2 4900   1.656   3.067   0.314 -0.3360  1.1066 -0.8475
 1553SOL     OW 4901   3.614   3.697   0.694  0.3821  0.4632 -0.4488
 1553SOL    HW1 4902   3.580   3.608   0.697 -0.3638  0.6851 -1.7581
 1553SOL    HW2 4903   3.699   3.689   0.652  0.9170  0.2189  0.6402
 1554SOL     OW 4904   3.550   0.194   2.331  0.3856 -0.0770  0.1787
 1554SOL    HW1 4905   3.477   0.164   2.276  0.3176  0.2343  0.1002
 1554SOL    HW2 4906   3.513   0.266   2.383  1.0257  1.0578 -0.9077
 1555SOL     OW 4907   2.294   3.363   1.015 -0.1692 -0.2695 -0.4172
 1555SOL    HW1 4908   2.292   3.288   0.957  0.7895 -0.9202  0.3595
 1555SOL    HW2 4909   2.226   3.422   0.981 -0.1958 -0.9956 -1.6700
 1556SOL     OW 4910   1.110   2.943   2.227  0.4746 -0.3058  0.1935
 1556SOL    HW1 4911   1.176   2.920   2.161  1.1303  1.4290  0.1996
 1556SOL    HW2 4912   1.099   3.038   2.218 -0.4039 -0.2385  1.7021
 1557SOL     OW 4913   3.191   4.359   2.014  0.4409  0.5568 -0.0957
 1557SOL    HW1 4914   3.107   4.371   2.058  0.7812 -0.2390  0.7919
 1557SOL    HW2 4915   3.170   4.367   1.921 -0.1308  3.3508  0.1587
 1558SOL     OW 4916   3.826   3.791   0.208 -0.2130  0.0841  0.1219
 1558SOL    HW1 4917   3.818   3.868   0.265 -2.2320  0.4337 -0.5514
 1558SOL    HW2 4918   3.766   3.809   0.136 -1.9564 -2.8068  0.7034
 1559SOL     OW 4919   2.380   1.819   0.314  0.2779 -0.0949 -0.2593
 1559SOL    HW1 4920   2.288   1.798   0.331 -0.0908  1.3882 -0.3044
 1559SOL    HW2 4921   2.409   1.751   0.253 -0.2456 -1.6472  1.1643
 1560SOL     OW 4922   2.431   3.235   2.532 -0.8594  0.1113 -0.6084
 1560SOL    HW1 4923   2.388   3.199   2.455 -1.3578  0.1871 -0.3722
 1560SOL    HW2 4924   2.453   3.158   2.585 -1.3197  0.1100 -0.4154
 1561SOL     OW 4925   4.117   3.518   2.788 -0.0484  0.4419 -0.4065
 1561SOL    HW1 4926   4.094   3.430   2.758 -0.3776  0.0886  0.8389
 1561SOL    HW2 4927   4.036   3.569   2.777 -0.5197  0.0178  0.9284
 1562SOL     OW 4928   1.063   4.193   0.007 -0.2124  0.0951  0.2553
 1562SOL    HW1 4929   1.153   4.228   0.007 -0.5764  1.0675  0.4465
 1562SOL    HW2 4930   1.050   4.162   0.096  0.2589 -0.9425 -0.0247
 1563SOL     OW 4931   0.909   2.255   2.863 -0.8064 -0.2767  0.1229
 1563SOL    HW1 4932   0.917   2.341   2.904  2.0454 -0.4323  0.0425
 1563SOL    HW2 4933   0.834   2.215   2.907  0.0501  0.8424  2.8158
 1564SOL     OW 4934   2.548   3.649   1.695 -0.6359 -0.0187 -0.0663
 1564SOL    HW1 4935   2.516   3.644   1.785  0.4987  1.0763  0.4269
 1564SOL    HW2 4936   2.579   3.739   1.686  0.7695 -0.5624 -1.0231
 1565SOL     OW 4937   2.306   3.846   0.519 -0.0728 -0.1839  0.4481
 1565SOL    HW1 4938   2.256   3.781   0.568 -0.6162  0.1529  0.3410
 1565SOL    HW2 4939   2.377   3.796   0.478 -0.4220 -0.6908  0.4601
 1566SOL     OW 4940   0.643   2.931   0.145  0.4009  0.5779  0.2381
 1566SOL    HW1 4941   0.593   2.921   0.226  1.7261  1.6622  1.2394
 1566SOL    HW2 4942   0.585   2.981   0.088 -1.3303 -1.8281 -0.2870
 1567SOL     OW 4943   3.091   2.316   2.030 -0.1951 -0.4312  0.1328
 1567SOL    HW1 4944   3.165   2.309   2.091 -0.7326 -0.0971  0.8520
 1567SOL    HW2 4945   3.131   2.332   1.945  0.6745 -2.8041  0.0111
 1568SOL     OW 4946   4.118   2.516   3.031  0.5340 -0.6045 -0.4641
 1568SOL    HW1 4947   4.122   2.543   2.939  0.0803  1.8507  0.1701
 1568SOL    HW2 4948   4.161   2.588   3.079  0.0308 -1.4316  1.3141
 1569SOL     OW 4949   0.421   3.353   1.516 -0.2357  0.7036  0.5655
 1569SOL    HW1 4950   0.428   3.339   1.611  0.4660 -0.7206  0.3289
 1569SOL    HW2 4951   0.370   3.279   1.484 -1.5967  1.8544 -0.0433
 1570SOL     OW 4952   0.379   3.686   1.974 -0.2321  0.2846  0.3221
 1570SOL    HW1 4953   0.382   3.767   2.025 -0.8570  0.8722 -0.5426
 1570SOL    HW2 4954   0.413   3.711   1.888  0.6546 -0.6554  0.3793
 1571SOL     OW 4955   3.641   4.094   2.058  0.4441  0.0686 -0.2074
 1571SOL    HW1 4956   3.676   4.104   1.970  2.2581 -2.4774  0.0994
 1571SOL    HW2 4957   3.548   4.114   2.051  0.4498 -0.5565 -2.8064
 1572SOL     OW 4958   1.168   0.576   1.396  0.3587  0.6003  0.1240
 1572SOL    HW1 4959   1.210   0.492   1.379 -0.8478  0.3163 -1.7787
 1572SOL    HW2 4960   1.139   0.606   1.310 -1.4189  1.7709  1.0617
 1573SOL     OW 4961   4.037   3.588   2.182  0.3831 -0.4427 -0.2438
 1573SOL    HW1 4962   4.047   3.677   2.216 -2.1378  0.5970 -1.9560
 1573SOL    HW2 4963   4.098   3.582   2.109  0.7286 -0.2088  0.0252
 1574SOL     OW 4964   2.944   3.637   0.168 -0.3915  0.2382  0.1728
 1574SOL    HW1 4965   3.031   3.667   0.194 -1.0130  2.0391  0.2784
 1574SOL    HW2 4966   2.939   3.658   0.074 -0.8275  0.4029  0.2344
 1575SOL     OW 4967   1.745   0.314   1.444  0.2556  0.1650 -0.0908
 1575SOL    HW1 4968   1.813   0.348   1.502 -0.5149  0.6919  0.5170
 1575SOL    HW2 4969   1.677   0.381   1.445  0.7973  0.8868 -2.7033
 1576SOL     OW 4970   1.163   1.422   2.723  0.1013 -0.7317 -0.3212
 1576SOL    HW1 4971   1.153   1.327   2.724 -2.6837 -0.5350 -1.1388
 1576SOL    HW2 4972   1.233   1.439   2.660 -0.4074 -2.1964 -1.3317
 1577SOL     OW 4973   3.622   0.042   2.911  0.1318 -0.3392  0.1969
 1577SOL    HW1 4974   3.648  -0.001   2.992  0.9968  1.9232  1.2018
 1577SOL    HW2 4975   3.570  -0.023   2.865  0.5542 -2.0808  2.0452
 1578SOL     OW 4976   0.910   0.903   0.326  0.0424  0.2523 -0.5803
 1578SOL    HW1 4977   0.859   0.963   0.381  4.0973  1.9385  1.8377
 1578SOL    HW2 4978   0.877   0.816   0.349 -1.7907  1.1893  0.6550
 1579SOL     OW 4979   4.079   4.060   1.251 -0.0071 -0.4003  0.0940
 1579SOL    HW1 4980   4.076   4.115   1.173  0.9081 -0.1574  0.2150
 1579SOL    HW2 4981   4.108   3.974   1.219  0.5251 -0.2570  0.1819
 1580SOL     OW 4982   1.758   1.765   1.780  0.6442  0.1536  0.4531
 1580SOL    HW1 4983   1.835   1.819   1.761  0.9776 -0.2952  0.5015
 1580SOL    HW2 4984   1.686   1.828   1.791  0.7363  0.5024 -0.8392
 1581SOL     OW 4985   0.656   2.295   1.030 -0.9325  0.4004 -0.0865
 1581SOL    HW1 4986   0.592   2.264   1.094 -1.4629  2.1492  0.2749
 1581SOL    HW2 4987   0.630   2.253   0.948  0.9128 -3.4850  1.0602
 1582SOL     OW 4988   3.522   3.458   0.765 -0.3132 -1.0361 -0.2743
 1582SOL    HW1 4989   3.462   3.418   0.703 -0.2766  0.1719 -1.1376
 1582SOL    HW2 4990   3.473   3.463   0.847 -1.1081 -0.8219 -0.7503
 1583SOL     OW 4991   4.233   1.178   2.424 -0.4576 -0.5537 -0.2204
 1583SOL    HW1 4992   4.188   1.126   2.358  0.6802 -0.5279 -1.0433
 1583SOL    HW2 4993   4.191   1.264   2.419 -1.5588 -1.0294  0.3399
 1584SOL     OW 4994   3.692   3.282   0.588  0.3613 -0.1084 -0.4375
 1584SOL    HW1 4995   3.646   3.327   0.659  1.0594 -0.1672  0.0625
 1584SOL    HW2 4996   3.777   3.258   0.626  0.0194 -1.8673 -0.6717
 1585SOL     OW 4997   3.215   3.609   0.648 -0.2298  0.1819 -0.5001
 1585SOL    HW1 4998   3.135   3.583   0.695  0.6412 -2.1975 -0.1848
 1585SOL    HW2 4999   3.222   3.703   0.663 -1.8086  0.0754  1.3108
 1586SOL     OW 5000   1.219   1.203   0.171 -0.1161  0.0017 -0.2077
 1586SOL    HW1 5001   1.229   1.232   0.262  2.5574 -2.6132  0.5181
 1586SOL    HW2 5002   1.295   1.240   0.126 -0.2655 -0.4562 -0.8534
 1587SOL     OW 5003   3.744   3.842   3.045 -0.2431 -0.3995 -0.4679
 1587SOL    HW1 5004   3.650   3.824   3.056 -0.3422  0.5696  0.5189
 1587SOL    HW2 5005   3.788   3.768   3.085 -0.6233  0.3454  1.4740
 1588SOL     OW 5006   3.274   1.697   0.154  0.0255  0.0477  0.2477
 1588SOL    HW1 5007   3.327   1.663   0.082  1.3176 -0.9856  1.6267
 1588SOL    HW2 5008   3.284   1.633   0.224 -1.6168  0.7537  1.1982
 1589SOL     OW 5009   1.662   3.287   1.074  0.1333 -0.6798  0.1724
 1589SOL    HW1 5010   1.572   3.280   1.105  1.0650  0.3472  3.5701
 1589SOL    HW2 5011   1.695   3.197   1.076  0.0318 -0.7286  2.1591
 1590SOL     OW 5012   0.756   3.492   1.079 -0.8007  0.2219 -0.1685
 1590SOL    HW1 5013   0.698   3.463   1.150  0.7490 -2.0953  0.2791
 1590SOL    HW2 5014   0.790   3.410   1.042  1.2431  1.4510 -1.1733
 1591SOL     OW 5015   3.674   3.255   0.293 -0.0189  0.2000  0.0070
 1591SOL    HW1 5016   3.726   3.258   0.373  0.9340  0.2824 -0.6021
 1591SOL    HW2 5017   3.628   3.340   0.291 -0.6076 -0.0819  0.8098
 1592SOL     OW 5018   1.968   2.384   2.425  0.3284 -0.2134  0.1081
 1592SOL    HW1 5019   1.880   2.347   2.418 -0.7204  2.2221 -0.4462
 1592SOL    HW2 5020   1.985   2.388   2.519 -0.1002 -0.7620  0.2152
 1593SOL     OW 5021   3.865   2.464   2.252  0.1322 -0.1941  0.0143
 1593SOL    HW1 5022   3.906   2.532   2.200 -2.6975  0.2056 -1.8933
 1593SOL    HW2 5023   3.903   2.382   2.220  2.3611  0.2749  1.2149
 1594SOL     OW 5024   1.858   4.336   1.895  0.1902  0.2582  0.6245
 1594SOL    HW1 5025   1.941   4.383   1.894  1.2856 -1.3475 -3.2809
 1594SOL    HW2 5026   1.882   4.245   1.875 -2.2835 -0.9958  2.7746
 1595SOL     OW 5027   2.833   1.738   1.185 -0.4886  0.1941  0.0791
 1595SOL    HW1 5028   2.772   1.669   1.210  0.1507 -0.9967 -1.4530
 1595SOL    HW2 5029   2.918   1.706   1.216 -0.3992  1.0867  0.7900
 1596SOL     OW 5030   1.618   3.828   0.246  0.1657 -0.3465 -0.3883
 1596SOL    HW1 5031   1.585   3.875   0.170 -2.7407  0.5459  1.2940
 1596SOL    HW2 5032   1.628   3.894   0.313 -0.8397 -1.5998  1.0623
 1597SOL     OW 5033   0.043   2.072   1.892  0.3017  0.0466  0.3551
 1597SOL    HW1 5034   0.108   2.017   1.936  0.2144  0.2888  0.8034
 1597SOL    HW2 5035   0.015   2.021   1.816  1.6394  0.2949 -0.3341
 1598SOL     OW 5036   2.368   2.599   0.116 -0.0140 -0.1339  0.7129
 1598SOL    HW1 5037   2.458   2.567   0.107  0.1426  0.2907  0.7384
 1598SOL    HW2 5038   2.368   2.649   0.197 -0.4123 -0.5788  0.9901
 1599SOL     OW 5039   3.212   2.509   2.310  0.0353 -0.2426 -0.1778
 1599SOL    HW1 5040   3.197   2.528   2.218 -1.7117  2.0825  0.4938
 1599SOL    HW2 5041   3.279   2.571   2.338 -0.7115  0.2996  0.4780
 1600SOL     OW 5042   2.567   2.317   0.094 -0.1331  0.2330 -0.1262
 1600SOL    HW1 5043   2.523   2.278   0.169  0.9356  0.6498  0.7397
 1600SOL    HW2 5044   2.644   2.263   0.079 -0.5013 -0.0437 -1.1524
 1601SOL     OW 5045   1.598   3.917   2.525  0.4497  0.0113 -0.1097
 1601SOL    HW1 5046   1.609   3.917   2.430 -1.9986 -0.1156 -0.4587
 1601SOL    HW2 5047   1.512   3.955   2.539  0.3953 -0.7654  2.0222
 1602SOL     OW 5048   3.937   3.795   0.824  0.0667  0.3357  0.2305
 1602SOL    HW1 5049   3.850   3.804   0.862  0.0486 -1.7887  0.8253
 1602SOL    HW2 5050   3.922   3.781   0.731 -0.3355 -1.1505  0.4970
 1603SOL     OW 5051   0.596   0.911   1.180  0.0780  0.2105  0.2075
 1603SOL    HW1 5052   0.532   0.969   1.221  0.4241 -0.1322  1.2564
 1603SOL    HW2 5053   0.544   0.856   1.122 -0.1450  2.1747 -1.5618
 1604SOL     OW 5054   1.508   2.611   0.751 -0.1035 -0.1156  0.3682
 1604SOL    HW1 5055   1.562   2.532   0.753 -1.1837 -0.9331 -0.8150
 1604SOL    HW2 5056   1.419   2.579   0.733 -0.3342  1.4381 -1.6427
 1605SOL     OW 5057   2.455   4.299   0.400  0.4374  1.1285 -0.0998
 1605SOL    HW1 5058   2.502   4.262   0.326 -0.1045  0.0217  0.0889
 1605SOL    HW2 5059   2.429   4.224   0.452 -1.4205  1.6937 -0.1338
 1606SOL     OW 5060   2.800   4.320   2.030 -0.3363  0.1019  0.5554
 1606SOL    HW1 5061   2.837   4.374   1.960  1.1564 -1.4627  0.0657
 1606SOL    HW2 5062   2.710   4.353   2.040 -0.2766  1.0361 -1.4065
 1607SOL     OW 5063   2.081   1.874   2.173 -0.8590 -0.3297  0.1362
 1607SOL    HW1 5064   2.093   1.824   2.093  0.0751 -0.2799  0.2380
 1607SOL    HW2 5065   2.141   1.948   2.166  0.4729 -1.2074  1.5850
 1608SOL     OW 5066   2.891   3.656   2.298 -0.5979 -0.0003  0.1214
 1608SOL    HW1 5067   2.888   3.566   2.266 -1.4402  0.0379  0.0750
 1608SOL    HW2 5068   2.848   3.707   2.230  0.4071  0.5348 -0.1298
 1609SOL     OW 5069   1.674   1.865   0.066 -0.7712 -0.3764  0.2473
 1609SOL    HW1 5070   1.656   1.772   0.055  0.3370 -0.5770  0.0601
 1609SOL    HW2 5071   1.592   1.908   0.040 -0.2890 -1.1389 -3.0677
 1610SOL     OW 5072   1.229   1.751   2.081  0.3648  0.1064  0.1362
 1610SOL    HW1 5073   1.176   1.762   2.160 -0.8567  1.0142 -0.7769
 1610SOL    HW2 5074   1.241   1.656   2.074  0.6640  0.0190  1.4951
 1611SOL     OW 5075   0.674   2.164   0.148 -0.4482 -0.2010 -0.1094
 1611SOL    HW1 5076   0.673   2.219   0.070  0.5286 -0.2596 -0.1742
 1611SOL    HW2 5077   0.590   2.119   0.147 -0.1019 -0.8884 -1.6369
 1612SOL     OW 5078   0.506   2.857   3.102 -0.5547  0.2661  0.2896
 1612SOL    HW1 5079   0.492   2.951   3.097  1.4117  0.5510 -0.6409
 1612SOL    HW2 5080   0.435   2.819   3.050 -2.2083  1.1084  1.8489
 1613SOL     OW 5081   3.674   1.701   2.766 -0.0810  0.1060 -0.1694
 1613SOL    HW1 5082   3.668   1.786   2.810 -1.5108  0.4361 -0.9298
 1613SOL    HW2 5083   3.598   1.699   2.708 -1.1379 -2.4830  1.1489
 1614SOL     OW 5084   0.815   1.563   0.113  0.1313 -0.1705 -0.4785
 1614SOL    HW1 5085   0.817   1.628   0.184  0.4760 -1.7626  1.0348
 1614SOL    HW2 5086   0.835   1.614   0.034 -3.4007  2.2557 -0.0177
 1615SOL     OW 5087   3.919   3.304   0.738  0.0784  0.1448 -0.0088
 1615SOL    HW1 5088   4.006   3.311   0.776 -0.3351 -1.5199  1.3656
 1615SOL    HW2 5089   3.861   3.340   0.805 -0.4898 -0.9909  0.1357
 1616SOL     OW 5090   3.101   4.252   2.444 -0.0411  0.4154 -0.5436
 1616SOL    HW1 5091   3.046   4.301   2.382 -0.2826 -0.2861 -0.8958
 1616SOL    HW2 5092   3.190   4.272   2.418 -0.1329  1.0763 -0.3603
 1617SOL     OW 5093   2.879   2.766   2.536  0.2530 -0.3441 -0.1706
 1617SOL    HW1 5094   2.826   2.845   2.530  0.2239 -0.4644 -2.4469
 1617SOL    HW2 5095   2.964   2.790   2.497 -0.1204 -1.6575 -1.9614
 1618SOL     OW 5096   3.504   2.149   1.194  0.0418 -0.1594  0.1735
 1618SOL    HW1 5097   3.501   2.058   1.223 -0.5887 -0.3929 -0.5724
 1618SOL    HW2 5098   3.426   2.190   1.232  1.2037  0.5430  1.9238
 1619SOL     OW 5099   0.237   2.936   1.679  0.1969 -0.0874 -0.2833
 1619SOL    HW1 5100   0.171   2.915   1.744  0.5888 -1.6021 -0.3228
 1619SOL    HW2 5101   0.309   2.976   1.728 -0.7632  1.7166 -0.2635
 1620SOL     OW 5102   0.473   0.504   0.447  0.9071 -0.1797  0.9592
 1620SOL    HW1 5103   0.561   0.522   0.414 -0.1970  2.6437 -0.7735
 1620SOL    HW2 5104   0.434   0.447   0.382  1.3132 -1.2240  1.6003
 1621SOL     OW 5105   4.166   0.467   0.252  0.6135  0.6281  0.7105
 1621SOL    HW1 5106   4.248   0.474   0.203  0.3518  0.3713  0.2269
 1621SOL    HW2 5107   4.133   0.556   0.258  0.6276  0.6532  0.3903
 1622SOL     OW 5108   1.277   4.205   1.942  0.3903  0.1882  0.9996
 1622SOL    HW1 5109   1.265   4.199   2.037 -0.1375 -3.3652  0.8672
 1622SOL    HW2 5110   1.191   4.187   1.906  1.2271 -2.1217 -0.0627
 1623SOL     OW 5111   2.783   4.016   1.872 -0.1315  0.5906 -0.3571
 1623SOL    HW1 5112   2.756   4.090   1.926 -0.5299 -0.6435  1.1959
 1623SOL    HW2 5113   2.872   4.036   1.846  0.3403  0.9011  1.3814
 1624SOL     OW 5114   1.186   2.979   0.085  0.4491 -0.2340  0.1314
 1624SOL    HW1 5115   1.215   3.060   0.043  1.8830 -1.2069 -0.8276
 1624SOL    HW2 5116   1.266   2.935   0.113 -0.3499 -0.8229  1.6766
 1625SOL     OW 5117   4.013   0.984   1.339 -0.3142 -0.0960  0.0717
 1625SOL    HW1 5118   4.033   1.001   1.247 -1.3350 -0.2067 -0.1723
 1625SOL    HW2 5119   4.025   0.890   1.349 -0.2947 -0.0973  0.0376
 1626SOL     OW 5120   3.190   1.960   2.460 -0.7473 -0.0822  0.8551
 1626SOL    HW1 5121   3.199   2.050   2.492  2.1628 -0.4341  1.3363
 1626SOL    HW2 5122   3.227   1.907   2.531 -0.0197 -1.4105 -0.4823
 1627SOL     OW 5123   2.441   0.965   2.367  0.2345 -0.6723 -0.0098
 1627SOL    HW1 5124   2.501   0.899   2.332 -0.0484 -0.5378 -0.7677
 1627SOL    HW2 5125   2.498   1.028   2.410  0.8746  0.5339 -2.4437
 1628SOL     OW 5126   3.990   0.991   1.900 -0.1332 -0.4176 -0.1762
 1628SOL    HW1 5127   3.899   1.006   1.926  0.0112  0.1510  0.0098
 1628SOL    HW2 5128   3.984   0.942   1.818 -0.6085 -0.3641 -0.1727
 1629SOL     OW 5129   3.922   0.774   0.715 -0.0483 -0.8439  0.2740
 1629SOL    HW1 5130   3.925   0.680   0.699 -0.3493 -0.5090 -2.1929
 1629SOL    HW2 5131   4.006   0.794   0.756  0.9258 -1.9162 -1.1092
 1630SOL     OW 5132   0.542   0.334   1.566 -0.6731 -0.2809 -0.0146
 1630SOL    HW1 5133   0.622   0.282   1.572 -0.2218  0.4863  1.0625
 1630SOL    HW2 5134   0.556   0.406   1.627 -2.0891  0.0155  0.0005
 1631SOL     OW 5135   2.751   2.000   1.633  0.6717 -0.1259 -0.1860
 1631SOL    HW1 5136   2.724   2.088   1.604 -0.4948 -0.4931 -0.2367
 1631SOL    HW2 5137   2.847   2.005   1.636  0.6619  0.9020 -0.9857
 1632SOL     OW 5138   4.060   0.719   0.220 -0.6828 -0.5058 -0.2855
 1632SOL    HW1 5139   4.058   0.777   0.297 -0.1886  2.5668 -2.4026
 1632SOL    HW2 5140   3.972   0.726   0.183 -0.4372 -0.6694 -0.8965
 1633SOL     OW 5141   2.275   1.531   1.951  0.0437  0.5242 -0.1761
 1633SOL    HW1 5142   2.354   1.527   1.898  0.2202  0.3171  0.0999
 1633SOL    HW2 5143   2.223   1.455   1.923 -0.4567  1.1424 -0.9741
 1634SOL     OW 5144   0.489  -0.022   1.445 -0.3411  0.2803  0.3717
 1634SOL    HW1 5145   0.491   0.006   1.537 -0.1817  2.3624 -0.2222
 1634SOL    HW2 5146   0.410   0.017   1.409 -0.0184  0.0969 -0.5716
 1635SOL     OW 5147   3.615   2.226   2.379  0.0087 -0.2493  0.0520
 1635SOL    HW1 5148   3.572   2.294   2.328  0.7952  0.9274  0.8938
 1635SOL    HW2 5149   3.632   2.155   2.317 -1.9102 -0.2016 -0.5762
 1636SOL     OW 5150   3.692   2.868   3.098 -0.5656  0.0779 -0.6969
 1636SOL    HW1 5151   3.652   2.955   3.105  1.5801  1.0977  0.1441
 1636SOL    HW2 5152   3.746   2.873   3.019  0.6251  0.0378  0.0786
 1637SOL     OW 5153   0.353   0.813   3.079 -0.2900  0.3869 -0.0647
 1637SOL    HW1 5154   0.325   0.745   3.018 -1.0819  0.0688  0.6382
 1637SOL    HW2 5155   0.313   0.893   3.045 -3.3451 -0.2575  1.6561
 1638SOL     OW 5156   2.317   3.902   2.612  0.0953 -0.2672 -0.1835
 1638SOL    HW1 5157   2.279   3.989   2.604 -2.0681 -1.2625 -1.7311
 1638SOL    HW2 5158   2.410   3.915   2.597  0.3434  2.1326  2.5692
 1639SOL     OW 5159   3.276   2.214   0.039  0.3364 -0.0133  1.2233
 1639SOL    HW1 5160   3.272   2.119   0.045  0.3521 -0.0267  1.0308
 1639SOL    HW2 5161   3.365   2.233   0.011 -0.1679 -0.0409 -0.5032
 1640SOL     OW 5162   2.151   4.199   0.774 -0.4079 -0.0757  0.3103
 1640SOL    HW1 5163   2.103   4.278   0.752 -0.4867  0.2068  1.4372
 1640SOL    HW2 5164   2.157   4.200   0.869  0.6880 -0.7816  0.2683
 1641SOL     OW 5165   0.081   2.000   1.234 -0.0771 -0.8271  0.0038
 1641SOL    HW1 5166   0.035   2.068   1.283  0.6048 -1.1684  1.1580
 1641SOL    HW2 5167   0.035   1.995   1.151 -1.6160 -0.5905  0.8078
 1642SOL     OW 5168   1.449   4.025   1.161  0.2609  0.7212 -0.8382
 1642SOL    HW1 5169   1.466   4.018   1.067 -2.4417 -0.4796 -1.3224
 1642SOL    HW2 5170   1.354   4.021   1.169  0.3872  1.1764  1.9553
 1643SOL     OW 5171   2.436   3.117   0.427  0.9993  0.4364 -0.2116
 1643SOL    HW1 5172   2.487   3.075   0.358  1.8863 -0.1009  0.7382
 1643SOL    HW2 5173   2.413   3.047   0.487 -0.1298  0.8266 -0.1671
 1644SOL     OW 5174   3.727   0.735   1.315 -0.2023  0.0165 -0.1048
 1644SOL    HW1 5175   3.823   0.738   1.322 -0.1158 -0.7006 -0.8122
 1644SOL    HW2 5176   3.706   0.801   1.250 -0.0347 -0.8961 -1.1163
 1645SOL     OW 5177   0.110   2.154   0.832 -0.3574 -0.0584 -0.5102
 1645SOL    HW1 5178   0.068   2.225   0.783 -0.2794 -0.9957 -1.9814
 1645SOL    HW2 5179   0.171   2.115   0.770  0.0013 -1.0706  0.4531
 1646SOL     OW 5180   1.568   2.078   0.698  0.2522 -0.5136  0.2620
 1646SOL    HW1 5181   1.525   2.158   0.669 -0.2960 -0.4749  1.1317
 1646SOL    HW2 5182   1.593   2.095   0.789 -0.4528 -1.5430  0.6713
 1647SOL     OW 5183   1.363   0.711   2.906  0.1527 -0.4587 -0.0144
 1647SOL    HW1 5184   1.440   0.654   2.897 -0.5009 -1.6431  1.5669
 1647SOL    HW2 5185   1.296   0.656   2.946 -1.3960  0.6956 -0.8965
 1648SOL     OW 5186   3.705   3.627   1.065 -0.3159  0.5044  0.2550
 1648SOL    HW1 5187   3.690   3.709   1.017 -1.1493  0.9878  1.3219
 1648SOL    HW2 5188   3.693   3.650   1.157  0.0965 -0.6823  0.6242
 1649SOL     OW 5189   1.782   0.840   1.187 -0.5514 -0.1192 -0.4893
 1649SOL    HW1 5190   1.703   0.799   1.222 -0.7399  0.4885 -0.1914
 1649SOL    HW2 5191   1.756   0.870   1.100 -0.8536  0.6683 -0.1365
 1650SOL     OW 5192   2.493   3.654   2.240  0.1697 -0.1031 -0.4828
 1650SOL    HW1 5193   2.549   3.578   2.257 -0.1858 -0.6738 -1.7574
 1650SOL    HW2 5194   2.424   3.647   2.306  0.8661 -0.1196  0.2677
 1651SOL     OW 5195   0.964   3.758   0.308 -0.4288 -0.7750 -0.8992
 1651SOL    HW1 5196   0.873   3.775   0.282 -1.2812 -0.8470  1.7815
 1651SOL    HW2 5197   1.016   3.812   0.248 -2.3719  1.0516 -1.0742
 1652SOL     OW 5198   3.503   0.505   1.972  0.0390  0.1038 -0.4491
 1652SOL    HW1 5199   3.548   0.435   2.017 -1.3016  0.0218  0.8403
 1652SOL    HW2 5200   3.490   0.472   1.883 -0.8522 -1.4471  0.2153
 1653SOL     OW 5201   2.885   1.770   1.758  0.5509  0.2766 -0.4694
 1653SOL    HW1 5202   2.835   1.798   1.681  0.1742  0.2612 -0.2337
 1653SOL    HW2 5203   2.947   1.705   1.724 -0.6752 -0.9196 -0.5180
 1654SOL     OW 5204   3.316   0.178   2.731 -0.3612  0.0625  0.7352
 1654SOL    HW1 5205   3.304   0.188   2.825 -1.6933  1.2066  0.4847
 1654SOL    HW2 5206   3.245   0.120   2.703 -1.0508  1.1105  0.2239
 1655SOL     OW 5207   1.657   3.112   1.433  0.1328  0.0951  0.2943
 1655SOL    HW1 5208   1.568   3.088   1.408  0.9751 -1.5682 -1.3870
 1655SOL    HW2 5209   1.653   3.206   1.451 -2.2238 -0.2151  1.7054
 1656SOL     OW 5210   3.559   3.442   2.864 -0.6940 -0.3536  0.1530
 1656SOL    HW1 5211   3.508   3.478   2.792  1.1908 -0.8086 -1.4818
 1656SOL    HW2 5212   3.494   3.396   2.918 -2.5748  2.1898  0.2775
 1657SOL     OW 5213   3.166   2.475   1.776  0.0623  0.1437 -0.2688
 1657SOL    HW1 5214   3.148   2.569   1.765  0.2174  0.2098  0.0340
 1657SOL    HW2 5215   3.166   2.441   1.686 -2.8429 -0.1187 -0.2688
 1658SOL     OW 5216   2.535   2.234   0.938  0.0926 -0.5835 -0.2211
 1658SOL    HW1 5217   2.589   2.282   0.876 -0.3052 -2.0117 -1.7497
 1658SOL    HW2 5218   2.462   2.293   0.957  0.9516  0.4294  0.0220
 1659SOL     OW 5219   3.812   3.996   2.492 -0.0351 -0.3007  0.2571
 1659SOL    HW1 5220   3.798   4.076   2.441  1.2886 -0.4647 -0.3933
 1659SOL    HW2 5221   3.857   3.936   2.433 -0.5992 -1.3792  0.8830
 1660SOL     OW 5222   2.665   4.346   0.017  0.5299  0.4292  0.4429
 1660SOL    HW1 5223   2.652   4.411   0.087 -2.6294 -0.2188  0.6122
 1660SOL    HW2 5224   2.642   4.262   0.057 -0.3482 -0.0933 -1.0486
 1661SOL     OW 5225   0.295   1.264   0.730  0.4983  0.0858  0.4530
 1661SOL    HW1 5226   0.320   1.332   0.667  0.3900 -1.7106 -1.6665
 1661SOL    HW2 5227   0.260   1.193   0.676  1.6746 -2.1419  2.4146
 1662SOL     OW 5228   4.024   1.134   0.822 -0.3014 -0.1792  0.4241
 1662SOL    HW1 5229   4.001   1.221   0.789 -1.8822  0.1455  2.2116
 1662SOL    HW2 5230   4.119   1.129   0.814 -0.4407  0.3874 -2.7790
 1663SOL     OW 5231   2.903   2.157   2.386 -0.2327  0.5245  0.1052
 1663SOL    HW1 5232   2.867   2.234   2.340 -1.2719 -0.3909 -0.6689
 1663SOL    HW2 5233   2.992   2.183   2.410  0.7335  0.7984 -3.1889
 1664SOL     OW 5234   0.803   0.150   0.787  0.5390 -0.0539 -0.4658
 1664SOL    HW1 5235   0.745   0.225   0.772  1.4188  0.9561  0.9128
 1664SOL    HW2 5236   0.775   0.116   0.872 -0.1112 -1.5764 -1.2523
 1665SOL     OW 5237   1.184   1.508   0.384 -0.2663 -0.1853 -0.5410
 1665SOL    HW1 5238   1.235   1.432   0.409 -1.7256 -1.4444 -1.2172
 1665SOL    HW2 5239   1.112   1.473   0.331 -1.5344  1.5396 -0.0702
 1666SOL     OW 5240   4.383   2.700   1.653  0.0012  0.8231  0.0378
 1666SOL    HW1 5241   4.344   2.620   1.618  0.6042 -0.2969  1.7676
 1666SOL    HW2 5242   4.476   2.677   1.666  0.5300  2.3407 -0.9303
 1667SOL     OW 5243   3.848   3.616   0.535  0.1615 -0.2083  0.0176
 1667SOL    HW1 5244   3.792   3.571   0.473  1.1718 -1.6341  0.0943
 1667SOL    HW2 5245   3.916   3.552   0.558 -0.1598  0.2444  2.5823
 1668SOL     OW 5246   3.056   0.397   2.624  0.1252  0.1779  0.1448
 1668SOL    HW1 5247   3.110   0.417   2.547 -0.1465  2.1974  0.4236
 1668SOL    HW2 5248   3.015   0.481   2.647 -1.2825 -0.7904  1.3673
 1669SOL     OW 5249   3.463   2.435   2.790 -0.3729  0.9480 -0.4537
 1669SOL    HW1 5250   3.412   2.515   2.782  0.4256  1.3232 -2.2465
 1669SOL    HW2 5251   3.553   2.465   2.798 -0.3096  0.2817  2.3927
 1670SOL     OW 5252   1.248   0.674   2.610 -0.0681 -0.3680 -0.0296
 1670SOL    HW1 5253   1.208   0.587   2.619 -0.8722 -0.0574 -0.5188
 1670SOL    HW2 5254   1.268   0.701   2.699  0.1971 -1.0567  0.1284
 1671SOL     OW 5255   0.430   2.495   3.073  0.5559  0.6341 -0.2657
 1671SOL    HW1 5256   0.458   2.461   2.988  1.1290 -0.2364  0.2652
 1671SOL    HW2 5257   0.363   2.560   3.051 -0.3303 -0.5855 -1.3219
 1672SOL     OW 5258   3.909   1.204   0.180 -0.1020 -0.1679 -0.7044
 1672SOL    HW1 5259   3.853   1.230   0.254 -0.0155  0.6147 -0.9017
 1672SOL    HW2 5260   3.897   1.274   0.116  0.3641 -0.4883 -1.1459
 1673SOL     OW 5261   1.333   0.188   2.437 -0.0582 -0.2229 -0.6719
 1673SOL    HW1 5262   1.397   0.257   2.454  0.8140 -1.2173  0.2226
 1673SOL    HW2 5263   1.353   0.158   2.348 -0.2942  0.4916 -0.9782
 1674SOL     OW 5264   4.190   2.268   3.056 -0.0857 -0.3708 -0.1161
 1674SOL    HW1 5265   4.161   2.354   3.027 -1.4021 -0.6087  0.4176
 1674SOL    HW2 5266   4.180   2.212   2.979  0.2071 -0.1736 -0.2981
 1675SOL     OW 5267   1.381   3.052   0.342 -0.3019  0.4080 -0.0149
 1675SOL    HW1 5268   1.364   2.962   0.315  1.1217  0.1335 -0.0861
 1675SOL    HW2 5269   1.306   3.076   0.397 -1.4949 -0.2508 -1.2989
 1676SOL     OW 5270   0.006   4.225   1.640 -0.1322 -0.5690  0.0812
 1676SOL    HW1 5271   0.091   4.266   1.652 -0.4737 -0.0721  0.8861
 1676SOL    HW2 5272  -0.002   4.213   1.545  0.0255  1.1499 -0.1826
 1677SOL     OW 5273   0.739   2.323   2.353 -0.1634 -0.0215 -0.3294
 1677SOL    HW1 5274   0.669   2.348   2.293  1.1993  2.0504 -1.1770
 1677SOL    HW2 5275   0.807   2.285   2.296  0.0858 -0.4942  0.2686
 1678SOL     OW 5276   4.286   0.795   1.134 -0.2258  0.4208  0.0304
 1678SOL    HW1 5277   4.243   0.832   1.057  0.7888  0.9266 -0.3157
 1678SOL    HW2 5278   4.380   0.808   1.118 -0.0097  1.6877  1.9082
 1679SOL     OW 5279   4.001   1.249   1.631  0.4425  0.2031 -0.3334
 1679SOL    HW1 5280   3.921   1.294   1.604 -1.7194 -3.4689 -0.6955
 1679SOL    HW2 5281   4.056   1.249   1.552 -1.5520 -1.7316 -1.8349
 1680SOL     OW 5282   3.302   1.381   1.746 -0.4481  0.1319 -0.1776
 1680SOL    HW1 5283   3.373   1.435   1.780  0.8336  0.3443 -2.8889
 1680SOL    HW2 5284   3.222   1.429   1.769  0.4672  1.4467  0.3558
 1681SOL     OW 5285   4.070   3.829   0.441 -0.0974  0.3629  0.5132
 1681SOL    HW1 5286   4.063   3.761   0.374  0.3008  0.5607  0.2630
 1681SOL    HW2 5287   3.980   3.848   0.466 -0.2105 -0.3502  0.6872
 1682SOL     OW 5288   0.190   2.991   2.272 -0.0497 -0.3286 -0.5137
 1682SOL    HW1 5289   0.136   2.924   2.314  0.2245 -0.1501  0.1357
 1682SOL    HW2 5290   0.280   2.965   2.292  0.0492  0.5229  0.2181
 1683SOL     OW 5291   2.201   2.224   0.340 -0.4683  0.3431  0.1281
 1683SOL    HW1 5292   2.186   2.317   0.322 -1.6783 -0.0188 -0.9505
 1683SOL    HW2 5293   2.200   2.183   0.253 -0.7937 -0.7883  0.6472
 1684SOL     OW 5294   1.725   2.271   2.506 -0.5086  0.5313 -0.4441
 1684SOL    HW1 5295   1.652   2.223   2.467  0.3080 -0.2252 -1.0999
 1684SOL    HW2 5296   1.685   2.326   2.572 -1.6800  0.1697 -0.8217
 1685SOL     OW 5297   1.358   0.848   0.357  0.0405  0.0914 -0.5300
 1685SOL    HW1 5298   1.271   0.857   0.318 -0.7017  2.3254  1.4077
 1685SOL    HW2 5299   1.341   0.832   0.450  1.7291 -1.3583 -0.4278
 1686SOL     OW 5300   0.088   3.945   0.938 -0.4531  0.9229  0.4437
 1686SOL    HW1 5301   0.024   3.999   0.893 -0.8179  0.6311  0.6052
 1686SOL    HW2 5302   0.172   3.971   0.900 -0.7325  0.8219 -0.2692
 1687SOL     OW 5303   0.585   1.634   0.579 -0.4223 -0.4423 -0.6496
 1687SOL    HW1 5304   0.677   1.657   0.594 -0.2103 -0.5711 -1.6434
 1687SOL    HW2 5305   0.541   1.718   0.565 -1.0286 -0.1188  2.4212
 1688SOL     OW 5306   1.416   3.470   2.087  0.0364 -0.2592  0.1534
 1688SOL    HW1 5307   1.507   3.475   2.059 -0.0370 -1.3826 -0.3412
 1688SOL    HW2 5308   1.366   3.463   2.005 -0.6757  2.1563  0.2980
 1689SOL     OW 5309   3.557   3.838   2.201 -0.6057  0.2273  0.0042
 1689SOL    HW1 5310   3.629   3.799   2.251 -0.7749 -1.0935 -0.7274
 1689SOL    HW2 5311   3.600   3.898   2.139 -0.3825  1.6896  1.5147
 1690SOL     OW 5312   2.067   3.470   1.588 -0.1782  0.1333 -0.1250
 1690SOL    HW1 5313   1.974   3.480   1.565  0.1013 -1.4581 -2.4086
 1690SOL    HW2 5314   2.079   3.375   1.595  1.6711  0.1209 -2.1633
 1691SOL     OW 5315   0.978   2.322   1.602  0.1468  0.0067 -0.4889
 1691SOL    HW1 5316   0.991   2.407   1.561 -1.4495  0.0230 -1.0101
 1691SOL    HW2 5317   0.986   2.339   1.696  1.2798  0.4384 -0.6439
 1692SOL     OW 5318   2.037   1.840   3.092  0.1363  0.1019 -0.2051
 1692SOL    HW1 5319   1.963   1.833   3.151  1.4660 -0.0104  1.5254
 1692SOL    HW2 5320   2.070   1.751   3.082 -0.9263 -0.1189 -2.3504
 1693SOL     OW 5321   4.072   1.248   1.893  0.4052  0.7291 -0.1367
 1693SOL    HW1 5322   4.027   1.291   1.820 -1.6369  0.0224  0.6028
 1693SOL    HW2 5323   4.069   1.155   1.871  1.7680  0.6733 -0.1627
 1694SOL     OW 5324   3.106   1.289   0.858  0.8258  0.0947  0.7968
 1694SOL    HW1 5325   3.159   1.340   0.798  2.5377 -0.4268  1.8024
 1694SOL    HW2 5326   3.045   1.352   0.896  0.8670  0.7610 -0.2060
 1695SOL     OW 5327   0.326   0.199   0.544 -0.4696 -0.4098 -0.1917
 1695SOL    HW1 5328   0.305   0.268   0.607 -1.0765 -0.7593 -0.0076
 1695SOL    HW2 5329   0.365   0.245   0.469  0.8280 -0.0359  0.6708
 1696SOL     OW 5330   2.987   2.908   0.628  0.0211 -0.3897  0.1197
 1696SOL    HW1 5331   3.076   2.915   0.663  0.2199  1.4330 -0.6551
 1696SOL    HW2 5332   2.998   2.884   0.536 -0.1374  1.7166 -0.5074
 1697SOL     OW 5333   4.192   0.764   2.433  0.0412  0.2312 -0.0682
 1697SOL    HW1 5334   4.200   0.677   2.471 -1.1413 -0.0554 -0.4316
 1697SOL    HW2 5335   4.257   0.817   2.480 -0.1051 -0.5473  1.0561
 1698SOL     OW 5336   2.549   1.907   2.613 -0.3833  0.0986  0.1754
 1698SOL    HW1 5337   2.613   1.921   2.544 -0.4597 -2.0876 -0.4110
 1698SOL    HW2 5338   2.467   1.941   2.578 -0.3003 -0.4744 -0.5949
 1699SOL     OW 5339   1.862   0.509   2.145  0.0479 -0.4438 -0.0917
 1699SOL    HW1 5340   1.814   0.587   2.173 -0.7852 -1.3760  1.2475
 1699SOL    HW2 5341   1.794   0.443   2.130  0.8030 -1.3352  0.2669
 1700SOL     OW 5342   3.670   0.984   1.088 -0.0615 -0.0202 -0.0498
 1700SOL    HW1 5343   3.607   1.040   1.042 -0.2645  0.1489  0.4222
 1700SOL    HW2 5344   3.671   0.903   1.038 -0.2277  0.1860 -0.3917
 1701SOL     OW 5345   0.277   2.174   2.241 -0.1904  0.2005  0.2418
 1701SOL    HW1 5346   0.195   2.149   2.284 -0.6378  0.7317 -0.2773
 1701SOL    HW2 5347   0.250   2.202   2.153  0.5654  0.2785  0.0261
 1702SOL     OW 5348   4.325   3.136   0.548  0.0030 -0.4011 -0.5007
 1702SOL    HW1 5349   4.368   3.183   0.477  0.2745 -0.3025 -0.2727
 1702SOL    HW2 5350   4.233   3.160   0.541 -0.2203 -1.5089 -1.7032
 1703SOL     OW 5351   2.752   1.206   2.237 -0.3936 -0.0287  0.5323
 1703SOL    HW1 5352   2.783   1.264   2.306  0.4069  1.0929 -0.7016
 1703SOL    HW2 5353   2.679   1.253   2.197  0.9099  0.6667 -1.1401
 1704SOL     OW 5354   3.214   1.248   1.193  0.2407 -0.4609 -0.3395
 1704SOL    HW1 5355   3.301   1.276   1.221 -0.1238 -1.8243  2.5692
 1704SOL    HW2 5356   3.229   1.197   1.114  1.9221  0.3078 -0.5586
 1705SOL     OW 5357   3.501   3.115   3.008  0.0753  0.0751  0.3938
 1705SOL    HW1 5358   3.581   3.167   3.008  0.2132  0.0153 -2.3045
 1705SOL    HW2 5359   3.432   3.178   3.031  0.4929  0.9929 -0.7801
 1706SOL     OW 5360   2.849   1.254   0.177  0.3194 -0.1213 -0.4257
 1706SOL    HW1 5361   2.788   1.236   0.248  1.6332  0.6554  0.9445
 1706SOL    HW2 5362   2.801   1.313   0.119 -0.0788  0.9237  0.9168
 1707SOL     OW 5363   3.559   3.303   2.323  0.5591 -0.2722 -0.1619
 1707SOL    HW1 5364   3.644   3.336   2.291  1.1510 -1.4398  0.1665
 1707SOL    HW2 5365   3.573   3.288   2.417 -0.5024  1.0259  0.2404
 1708SOL     OW 5366   0.628   2.869   1.103  0.8577 -0.5352 -0.1391
 1708SOL    HW1 5367   0.634   2.888   1.009 -0.1445 -1.0831 -0.3311
 1708SOL    HW2 5368   0.638   2.774   1.109 -0.8820 -0.7438  0.0935
 1709SOL     OW 5369   0.186   3.736   1.111 -0.1097 -0.6595  0.5154
 1709SOL    HW1 5370   0.108   3.683   1.095 -0.3879  0.0773 -0.7392
 1709SOL    HW2 5371   0.175   3.812   1.054 -0.0095  1.0833  2.6830
 1710SOL     OW 5372   4.342   3.545   0.443 -0.3303  0.3323  0.4377
 1710SOL    HW1 5373   4.266   3.529   0.499 -1.3000  0.6221 -0.7383
 1710SOL    HW2 5374   4.341   3.473   0.380  0.1244  0.5676  0.1521
 1711SOL     OW 5375   2.061   3.500   0.875  0.6805 -0.1440  0.3472
 1711SOL    HW1 5376   1.995   3.570   0.874  1.0239  0.1917  0.8817
 1711SOL    HW2 5377   2.010   3.420   0.860  0.1599  0.1226  0.6466
 1712SOL     OW 5378   3.476   3.771   3.085  0.0486  0.6027 -0.2802
 1712SOL    HW1 5379   3.501   3.694   3.135 -1.0991  0.5167  0.1878
 1712SOL    HW2 5380   3.386   3.754   3.058  0.7031  0.5501 -2.5852
 1713SOL     OW 5381   1.169   0.627   2.362  0.9250  0.4779  0.1216
 1713SOL    HW1 5382   1.171   0.672   2.446 -1.3495  0.2510  0.3382
 1713SOL    HW2 5383   1.173   0.534   2.385  0.6533  0.4254 -0.0436
 1714SOL     OW 5384   3.414   3.664   0.991  0.4976 -0.6296 -0.2095
 1714SOL    HW1 5385   3.393   3.621   1.074  0.3789 -2.5055 -1.1535
 1714SOL    HW2 5386   3.508   3.681   0.996  0.2247  0.7247  0.9139
 1715SOL     OW 5387   3.631   2.734   2.808  0.2192  0.4431  0.0760
 1715SOL    HW1 5388   3.666   2.654   2.848  0.6101 -0.0077 -1.1169
 1715SOL    HW2 5389   3.708   2.782   2.778 -0.0645  0.7439 -0.1788
 1716SOL     OW 5390   3.775   0.496   0.378 -0.0858  0.0886  0.4467
 1716SOL    HW1 5391   3.834   0.556   0.424 -0.3548 -0.2321  1.2279
 1716SOL    HW2 5392   3.690   0.509   0.421 -0.6109  0.5891 -0.7039
 1717SOL     OW 5393   3.462   3.338   1.021 -0.0183 -0.2613  0.6488
 1717SOL    HW1 5394   3.416   3.260   1.052 -0.9292 -0.0249 -0.0715
 1717SOL    HW2 5395   3.463   3.397   1.096 -0.9414 -0.2521  0.6612
 1718SOL     OW 5396   4.291   1.225   0.068 -0.0867 -0.0254 -0.0817
 1718SOL    HW1 5397   4.221   1.191   0.124  1.3681 -2.5801  0.3389
 1718SOL    HW2 5398   4.260   1.213  -0.021 -0.8328  0.4356  0.1089
 1719SOL     OW 5399   3.433   2.757   0.633 -0.1020 -0.0735 -0.3635
 1719SOL    HW1 5400   3.455   2.751   0.540  2.6618 -1.4800  0.2777
 1719SOL    HW2 5401   3.449   2.849   0.655 -0.6383  0.2373 -1.2258
 1720SOL     OW 5402   3.535   0.918   0.645  0.0921 -0.2364 -0.3178
 1720SOL    HW1 5403   3.576   0.957   0.567  0.2509  0.5835  0.1651
 1720SOL    HW2 5404   3.538   0.987   0.711 -2.5659  0.0710 -0.4174
 1721SOL     OW 5405   2.528   2.754   1.729 -0.1933  0.2790 -0.4092
 1721SOL    HW1 5406   2.496   2.712   1.649  0.7956  0.9986 -1.1953
 1721SOL    HW2 5407   2.449   2.789   1.771 -0.8776 -1.1504 -0.4183
 1722SOL     OW 5408   3.136   1.253   0.177 -0.1278 -0.0150 -0.1412
 1722SOL    HW1 5409   3.052   1.288   0.148 -1.0738 -2.7529 -1.0822
 1722SOL    HW2 5410   3.195   1.268   0.104 -0.4728 -0.2292 -0.4680
 1723SOL     OW 5411   4.206   4.402   2.980  0.5838  0.0506  0.2707
 1723SOL    HW1 5412   4.214   4.436   3.069 -0.7465 -0.0462  0.4514
 1723SOL    HW2 5413   4.117   4.368   2.975  0.4857  0.4324 -1.2289
 1724SOL     OW 5414   1.455   2.836   0.161  0.4240 -0.1231 -0.4544
 1724SOL    HW1 5415   1.519   2.905   0.180  2.2011 -1.5474 -0.8942
 1724SOL    HW2 5416   1.486   2.761   0.213 -1.5421 -0.5623  0.1481
 1725SOL     OW 5417   3.225   1.041   3.010  0.4068 -0.4670 -0.2328
 1725SOL    HW1 5418   3.170   0.976   3.053  0.7008 -1.4511 -1.3020
 1725SOL    HW2 5419   3.309   1.035   3.055  0.1190 -0.0350  0.3881
 1726SOL     OW 5420   3.787   4.208   1.200  0.0307  0.1605  0.2841
 1726SOL    HW1 5421   3.723   4.265   1.156 -1.1130  0.6137  2.4122
 1726SOL    HW2 5422   3.857   4.267   1.228  0.6430 -0.0938 -0.6415
 1727SOL     OW 5423   0.992   4.088   2.138  0.0325  0.2996 -0.0188
 1727SOL    HW1 5424   0.953   4.156   2.194  1.2819  0.7141  0.3697
 1727SOL    HW2 5425   0.949   4.100   2.053  0.4593  1.8122 -0.0511
 1728SOL     OW 5426   0.972   3.097   1.461 -0.1479 -0.1182  0.1722
 1728SOL    HW1 5427   0.944   3.045   1.536 -1.0180  0.6227  0.3858
 1728SOL    HW2 5428   0.925   3.058   1.387  0.1541 -0.4032  0.1310
 1729SOL     OW 5429   1.935   3.940   1.625 -0.7667 -0.4238 -0.2986
 1729SOL    HW1 5430   1.976   3.872   1.572  1.5160  1.7489 -1.5482
 1729SOL    HW2 5431   1.895   3.999   1.561  1.1740  1.7111  0.3168
 1730SOL     OW 5432   2.423   1.027   0.924 -0.2654 -0.1961 -0.4534
 1730SOL    HW1 5433   2.469   1.068   0.851 -0.3903  0.0773 -0.3823
 1730SOL    HW2 5434   2.471   1.055   1.002  1.8515 -3.0783 -0.5778
 1731SOL     OW 5435   3.949   3.746   2.704  0.3703  0.2134 -0.8100
 1731SOL    HW1 5436   3.856   3.759   2.685 -0.3658 -0.6679  1.7026
 1731SOL    HW2 5437   3.971   3.819   2.762  1.2143  0.3200 -1.2608
 1732SOL     OW 5438   2.435   2.237   1.486  0.3046  0.3393 -0.2701
 1732SOL    HW1 5439   2.504   2.297   1.512 -0.1864  0.3355  1.1462
 1732SOL    HW2 5440   2.478   2.151   1.482  0.7360  0.5830 -1.0900
 1733SOL     OW 5441   2.677   4.414   0.586 -0.3819  0.3097 -0.2070
 1733SOL    HW1 5442   2.598   4.403   0.534  0.6828  2.2837 -2.4518
 1733SOL    HW2 5443   2.739   4.351   0.549 -0.3647 -0.0364  0.3949
 1734SOL     OW 5444   3.057   0.850   2.881 -0.1850 -0.1545 -0.0445
 1734SOL    HW1 5445   3.120   0.922   2.884  1.6222 -1.6699  0.3706
 1734SOL    HW2 5446   3.085   0.791   2.951 -2.0218 -0.9553  0.0620
 1735SOL     OW 5447   2.266   0.438   0.676 -0.5797 -0.5234  0.2381
 1735SOL    HW1 5448   2.270   0.358   0.623 -0.6435  0.1749 -0.8438
 1735SOL    HW2 5449   2.190   0.485   0.642  0.0567  0.4767  0.1819
 1736SOL     OW 5450   0.466   0.740   1.032  0.0936  0.2976  0.6322
 1736SOL    HW1 5451   0.507   0.726   0.947 -0.3153 -0.2055  0.5149
 1736SOL    HW2 5452   0.435   0.654   1.058 -2.4511  0.8999 -0.0939
 1737SOL     OW 5453   1.919   3.696   1.469 -0.3555  0.1833 -0.2751
 1737SOL    HW1 5454   1.979   3.631   1.433 -0.9834 -0.1972 -0.6489
 1737SOL    HW2 5455   1.850   3.705   1.403 -1.2226 -0.1013  0.5591
 1738SOL     OW 5456   0.687   0.526   1.066 -0.3676 -0.2392  0.3242
 1738SOL    HW1 5457   0.756   0.466   1.037 -0.1502 -0.0160  0.3746
 1738SOL    HW2 5458   0.681   0.510   1.161  0.6307  0.7718  0.5712
 1739SOL     OW 5459   1.968   2.567   1.331  0.4010  0.8187 -0.1840
 1739SOL    HW1 5460   1.929   2.490   1.289  0.3126  2.2234 -2.8477
 1739SOL    HW2 5461   1.894   2.618   1.363  0.2359  1.4590 -1.5367
 1740SOL     OW 5462   4.192   1.576   1.236 -0.0889 -0.3785  0.0152
 1740SOL    HW1 5463   4.185   1.650   1.296  0.7388 -0.4247  0.1745
 1740SOL    HW2 5464   4.207   1.616   1.150  3.4058 -0.3236  0.4864
 1741SOL     OW 5465   0.595   2.621   0.397  0.0512 -0.0880  0.0453
 1741SOL    HW1 5466   0.514   2.664   0.427 -0.5921  0.2752 -2.0428
 1741SOL    HW2 5467   0.659   2.692   0.393  0.3634 -0.2789  1.1958
 1742SOL     OW 5468   1.948   1.968   0.727  0.6606  0.2944  0.1107
 1742SOL    HW1 5469   1.925   1.997   0.639 -2.2862 -0.6851  0.4433
 1742SOL    HW2 5470   1.931   1.874   0.727  0.0231  0.3727  1.8692
 1743SOL     OW 5471   3.629   0.233   1.309 -0.5157 -0.4904  0.7696
 1743SOL    HW1 5472   3.584   0.312   1.280  1.3650  0.3365 -0.0732
 1743SOL    HW2 5473   3.721   0.259   1.314 -0.0878 -2.1429  2.2624
 1744SOL     OW 5474   2.596   1.819   0.881 -0.1436 -0.1775  0.0537
 1744SOL    HW1 5475   2.517   1.767   0.900 -0.9462  1.1315  0.4610
 1744SOL    HW2 5476   2.606   1.814   0.786 -0.5248 -0.6402  0.0345
 1745SOL     OW 5477   1.068   2.095   1.453  0.0023  0.6935 -0.4612
 1745SOL    HW1 5478   1.097   2.168   1.509 -0.7441  2.3756 -2.1496
 1745SOL    HW2 5479   1.011   2.043   1.509  2.3361  0.0388  1.4749
 1746SOL     OW 5480   0.408   0.344   2.748 -0.4431 -0.0202  0.5430
 1746SOL    HW1 5481   0.362   0.299   2.819  0.3911 -1.1029  0.4334
 1746SOL    HW2 5482   0.348   0.341   2.674 -1.7769  2.0862  1.4461
 1747SOL     OW 5483   0.841   3.469   0.008  0.4919  0.1105  0.7275
 1747SOL    HW1 5484   0.877   3.380   0.005  0.1482 -0.0104 -0.8704
 1747SOL    HW2 5485   0.917   3.526  -0.001  0.5046 -0.1027 -0.7373
 1748SOL     OW 5486   2.368   1.402   2.189  0.5882  0.0940 -0.4363
 1748SOL    HW1 5487   2.402   1.323   2.146  0.8923 -0.3219  0.5436
 1748SOL    HW2 5488   2.336   1.456   2.117  1.0300 -0.6100 -1.1817
 1749SOL     OW 5489   1.215   2.841   1.571 -0.2327  0.4549 -0.0890
 1749SOL    HW1 5490   1.192   2.862   1.480 -0.4310 -0.7720 -0.3410
 1749SOL    HW2 5491   1.236   2.925   1.611 -1.7750  1.2211 -0.8169
 1750SOL     OW 5492   2.228   2.421   2.862  0.2356  0.1104 -0.1712
 1750SOL    HW1 5493   2.171   2.442   2.937  1.4413 -1.8741  1.4067
 1750SOL    HW2 5494   2.237   2.326   2.866  4.9252  0.3837  0.6983
 1751SOL     OW 5495   2.839   2.150   0.787  0.1460 -0.5265  0.1694
 1751SOL    HW1 5496   2.825   2.121   0.877 -2.1250  2.3280  0.9051
 1751SOL    HW2 5497   2.784   2.092   0.734 -0.5760 -0.5828  0.9645
 1752SOL     OW 5498   0.640   3.968   1.559 -0.0319  0.3396  0.1946
 1752SOL    HW1 5499   0.602   4.006   1.480 -1.1723 -2.0395 -0.5238
 1752SOL    HW2 5500   0.727   3.939   1.532  0.8076  2.2464  0.7234
 1753SOL     OW 5501   2.482   1.965   2.869  0.3649  0.4076  0.3290
 1753SOL    HW1 5502   2.467   1.873   2.894  0.5882  0.7601  1.8420
 1753SOL    HW2 5503   2.544   1.960   2.796  0.7213 -0.6340  0.6841
 1754SOL     OW 5504   0.463   3.005   1.455  0.1544 -0.4435 -0.4635
 1754SOL    HW1 5505   0.512   3.015   1.373  0.0827 -0.8596 -0.5598
 1754SOL    HW2 5506   0.404   3.079   1.457  0.5934 -0.0867 -0.4854
 1755SOL     OW 5507   0.058   1.921   0.507  0.0477  0.6332  0.0503
 1755SOL    HW1 5508   0.028   1.986   0.443 -0.3421 -1.7993 -2.4359
 1755SOL    HW2 5509  -0.005   1.850   0.499  1.3217 -0.7363  1.5414
 1756SOL     OW 5510   1.712   1.442   1.290  0.4041 -0.0915  0.0497
 1756SOL    HW1 5511   1.676   1.522   1.329 -0.1225 -0.3081  0.0004
 1756SOL    HW2 5512   1.666   1.371   1.334 -0.6454 -0.3374 -1.3928
 1757SOL     OW 5513   1.332   3.526   1.795  0.4565 -0.2298  0.3150
 1757SOL    HW1 5514   1.374   3.611   1.779 -0.2189  0.2173  0.8064
 1757SOL    HW2 5515   1.263   3.520   1.729  2.1692 -1.6245 -1.4307
 1758SOL     OW 5516   3.765   2.048   2.826  0.0258 -0.1515  0.4014
 1758SOL    HW1 5517   3.807   2.088   2.750  1.5881 -0.8302  0.8639
 1758SOL    HW2 5518   3.696   1.993   2.789 -0.5394  1.0435 -0.3789
 1759SOL     OW 5519   0.780   0.061   2.747  0.1309 -0.2000  0.3548
 1759SOL    HW1 5520   0.819   0.016   2.822 -0.6830  0.7564  1.3735
 1759SOL    HW2 5521   0.736  -0.009   2.698 -0.7812 -0.6073  1.7051
 1760SOL     OW 5522   1.947   2.077   0.478 -0.5866  0.5260  0.6578
 1760SOL    HW1 5523   1.916   2.032   0.400 -1.1620  0.9716  0.6257
 1760SOL    HW2 5524   2.040   2.091   0.462 -0.0255 -1.9395  1.2917
 1761SOL     OW 5525   1.062   3.392   2.789  0.4606 -0.1816  0.3550
 1761SOL    HW1 5526   1.078   3.310   2.836 -1.8266 -1.2206 -0.5093
 1761SOL    HW2 5527   0.993   3.435   2.840 -0.5799 -0.3382 -0.8633
 1762SOL     OW 5528   3.179   1.094   0.410  0.0305  0.8869  0.5031
 1762SOL    HW1 5529   3.126   1.152   0.356 -1.6167  0.2581  1.3588
 1762SOL    HW2 5530   3.150   1.006   0.386 -0.2753  0.5735  1.8899
 1763SOL     OW 5531   1.848   0.041   1.589  0.2728  0.4293 -0.1698
 1763SOL    HW1 5532   1.940   0.066   1.588  1.1517 -2.3518 -2.4308
 1763SOL    HW2 5533   1.800   0.124   1.588  2.6615  1.9658  1.8305
 1764SOL     OW 5534   0.970   0.962   1.936 -0.1790  0.0872 -0.2655
 1764SOL    HW1 5535   0.878   0.965   1.962 -0.4614 -0.3037 -1.1713
 1764SOL    HW2 5536   0.969   0.986   1.843  0.5974 -0.2280 -0.3577
 1765SOL     OW 5537   1.969   2.241   1.382  0.1012  0.1618 -0.1595
 1765SOL    HW1 5538   2.027   2.277   1.448 -0.1096  0.6022 -0.2145
 1765SOL    HW2 5539   1.890   2.295   1.386 -1.6380 -2.2404  2.0620
 1766SOL     OW 5540   1.039   3.548   0.945  0.1879  0.5074  0.3818
 1766SOL    HW1 5541   1.005   3.479   0.888 -1.2286  1.4537  0.0490
 1766SOL    HW2 5542   0.972   3.560   1.012  1.2239  0.3606  1.5012
 1767SOL     OW 5543   1.304   3.903   2.516  0.2894 -0.5370  0.2936
 1767SOL    HW1 5544   1.314   3.878   2.425  2.9923  0.0021  0.3785
 1767SOL    HW2 5545   1.286   3.821   2.562  1.0285 -1.1309 -0.4605
 1768SOL     OW 5546   3.521   1.172   2.064 -0.5264  0.0436  0.2797
 1768SOL    HW1 5547   3.546   1.261   2.088 -1.5436 -0.0364  1.7808
 1768SOL    HW2 5548   3.459   1.183   1.992 -1.6114  0.6759  1.2604
 1769SOL     OW 5549   2.039   0.989   1.635 -0.0353 -0.5724  0.1902
 1769SOL    HW1 5550   2.009   0.927   1.702  0.0358 -1.5122 -0.6417
 1769SOL    HW2 5551   2.002   1.073   1.663 -0.6036 -1.0836  1.0190
 1770SOL     OW 5552   2.370   2.246   2.207  0.0618 -0.2553 -0.4393
 1770SOL    HW1 5553   2.316   2.190   2.151 -1.1858 -0.9260  1.3502
 1770SOL    HW2 5554   2.454   2.201   2.212 -0.4995 -1.2817 -0.0881
 1771SOL     OW 5555   1.728   3.146   2.206  0.2589  0.0881  0.3436
 1771SOL    HW1 5556   1.746   3.104   2.290 -0.1998  0.3741  0.5934
 1771SOL    HW2 5557   1.710   3.237   2.229 -1.1532 -0.0970  0.0993
 1772SOL     OW 5558   2.298   3.123   2.310  0.0225  0.2778  0.0447
 1772SOL    HW1 5559   2.284   3.053   2.374  1.5102  0.6660  0.8544
 1772SOL    HW2 5560   2.314   3.077   2.228 -0.1663 -0.2961  0.3230
 1773SOL     OW 5561   2.205   0.473   1.211  0.4729  0.3213 -0.6076
 1773SOL    HW1 5562   2.147   0.548   1.221  0.0640 -0.1657  0.9962
 1773SOL    HW2 5563   2.146   0.400   1.192  0.5696 -0.0983  0.6212
 1774SOL     OW 5564   1.813   3.437   2.265 -0.0686 -0.0436  0.3261
 1774SOL    HW1 5565   1.748   3.425   2.334 -0.7417  1.7807  0.0772
 1774SOL    HW2 5566   1.897   3.427   2.309 -0.4968 -0.9392  0.9726
 1775SOL     OW 5567   3.426   1.998   2.080 -0.0909 -0.0144  0.2288
 1775SOL    HW1 5568   3.515   2.032   2.092  0.3730 -0.9870 -0.3339
 1775SOL    HW2 5569   3.403   1.962   2.166  0.0197  0.3214  0.4008
 1776SOL     OW 5570   1.624   3.471   2.876 -0.8846  0.5642 -0.1403
 1776SOL    HW1 5571   1.643   3.462   2.969 -2.0792 -0.8739  0.0122
 1776SOL    HW2 5572   1.572   3.393   2.855  0.8020 -0.0519 -2.4124
 1777SOL     OW 5573   0.650   2.673   0.027  0.1147 -0.2988 -0.5527
 1777SOL    HW1 5574   0.706   2.717  -0.038  0.2152 -0.7783 -0.7939
 1777SOL    HW2 5575   0.657   2.728   0.105 -0.5895  0.6934 -1.1621
 1778SOL     OW 5576   4.102   2.564   0.604 -0.8036  0.3186  0.0621
 1778SOL    HW1 5577   4.039   2.564   0.532 -1.1083  0.7622  0.3234
 1778SOL    HW2 5578   4.187   2.569   0.561 -1.0033  1.1362 -0.2628
 1779SOL     OW 5579   3.339   0.226   1.051  0.2389  0.1965  0.1101
 1779SOL    HW1 5580   3.306   0.216   1.140 -2.0499  0.5974 -0.6326
 1779SOL    HW2 5581   3.420   0.277   1.061  1.8273 -2.4758  2.1891
 1780SOL     OW 5582   4.326   3.565   2.318 -0.1753 -0.2120 -0.0202
 1780SOL    HW1 5583   4.300   3.618   2.243 -2.5378  0.2307  1.0164
 1780SOL    HW2 5584   4.315   3.624   2.393  2.1606 -0.6237  0.7433
 1781SOL     OW 5585   4.217   3.090   0.257  0.1195  0.0551  0.4440
 1781SOL    HW1 5586   4.180   3.058   0.339  0.9342 -1.1787  0.3525
 1781SOL    HW2 5587   4.169   3.043   0.189  2.1063 -1.9676  0.3324
 1782SOL     OW 5588   0.286   3.498   1.342  0.6968  0.7888 -0.0874
 1782SOL    HW1 5589   0.333   3.574   1.307  0.8266  0.1445 -1.3863
 1782SOL    HW2 5590   0.347   3.458   1.404  1.2321  0.9102 -0.5241
 1783SOL     OW 5591   2.057   3.071   1.050  0.0752  0.0007  0.1894
 1783SOL    HW1 5592   2.081   3.149   1.000 -1.9318  0.4424 -0.1573
 1783SOL    HW2 5593   2.117   3.003   1.019  0.3532  0.8391 -1.1714
 1784SOL     OW 5594   1.573   4.144   1.747  0.3965  0.0098 -0.2861
 1784SOL    HW1 5595   1.560   4.185   1.833 -0.1960 -1.7349  0.5094
 1784SOL    HW2 5596   1.665   4.158   1.727  0.7404 -0.2337  1.0260
 1785SOL     OW 5597   0.544   1.760   2.141 -0.0997  0.7644  0.3463
 1785SOL    HW1 5598   0.518   1.825   2.075  0.3521 -0.0688 -0.6879
 1785SOL    HW2 5599   0.514   1.677   2.105 -0.6670  0.3828  1.6529
 1786SOL     OW 5600   2.848   3.864   2.104 -0.7308  0.5256 -0.2904
 1786SOL    HW1 5601   2.805   3.906   2.030 -2.1833 -0.1394  0.1437
 1786SOL    HW2 5602   2.930   3.912   2.114  0.0867 -0.1281 -3.0417
 1787SOL     OW 5603   2.805   0.893   1.491  0.3836 -0.3371 -0.1559
 1787SOL    HW1 5604   2.745   0.824   1.519 -0.7064  0.3164 -0.7972
 1787SOL    HW2 5605   2.891   0.851   1.489 -0.1398 -1.4630  0.2075
 1788SOL     OW 5606   0.189   0.346   2.542  0.1091  0.1907 -0.2363
 1788SOL    HW1 5607   0.142   0.271   2.506  0.4807 -0.3297  0.3540
 1788SOL    HW2 5608   0.205   0.403   2.466 -0.3619 -0.2189 -0.6463
 1789SOL     OW 5609   2.835   3.993   0.269  0.0626  0.0171 -0.0568
 1789SOL    HW1 5610   2.894   3.990   0.193 -1.0016  0.2574 -0.9237
 1789SOL    HW2 5611   2.892   3.978   0.344  1.4826  1.6933 -0.7178
 1790SOL     OW 5612   0.587   4.086   3.083  0.0300 -0.0681  0.0429
 1790SOL    HW1 5613   0.597   4.086   2.987 -0.2952 -1.5998 -0.0154
 1790SOL    HW2 5614   0.600   4.177   3.108  0.8885  0.2379 -1.3839
 1791SOL     OW 5615   0.034   0.505   0.143  0.3415 -0.1543  0.5765
 1791SOL    HW1 5616   0.087   0.431   0.113  3.4404  1.4491  1.6079
 1791SOL    HW2 5617   0.017   0.556   0.064  0.2445 -0.7511  0.2081
 1792SOL     OW 5618   0.552   3.992   0.289 -0.3215  0.0127  0.2351
 1792SOL    HW1 5619   0.490   4.005   0.216 -0.0063  1.7446  0.2240
 1792SOL    HW2 5620   0.506   4.027   0.365  0.1943  0.2123  0.4548
 1793SOL     OW 5621   0.655   3.259   0.935  0.2597 -0.0666 -0.1195
 1793SOL    HW1 5622   0.603   3.321   0.884 -1.0741 -0.6740  0.4508
 1793SOL    HW2 5623   0.617   3.262   1.022  1.0238 -0.7360  0.2476
 1794SOL     OW 5624   0.421   2.876   2.340  0.3614 -0.0795 -0.3743
 1794SOL    HW1 5625   0.513   2.892   2.316  0.0430 -1.1245 -2.5066
 1794SOL    HW2 5626   0.423   2.865   2.435  2.6961 -1.5505 -0.5224
 1795SOL     OW 5627   1.614   2.189   0.964 -0.0641 -0.7124 -0.5812
 1795SOL    HW1 5628   1.691   2.239   0.938 -0.4768  0.4312  0.3347
 1795SOL    HW2 5629   1.633   2.159   1.053  0.2124 -2.2966 -1.1440
 1796SOL     OW 5630   2.152   0.702   1.539  0.0220  0.0772 -0.4099
 1796SOL    HW1 5631   2.154   0.760   1.462 -0.3561  0.9339  0.2066
 1796SOL    HW2 5632   2.175   0.759   1.612  1.3945 -0.9468  0.0071
 1797SOL     OW 5633   4.193   2.038   2.022  0.2842 -0.3393 -0.2622
 1797SOL    HW1 5634   4.230   2.067   2.106 -0.3197  0.8567 -0.3781
 1797SOL    HW2 5635   4.264   2.051   1.959  0.0468  0.9525 -0.3032
 1798SOL     OW 5636   3.758   2.128   1.315  0.5735 -0.2775  0.5515
 1798SOL    HW1 5637   3.675   2.128   1.266 -0.6675 -0.0723  2.5472
 1798SOL    HW2 5638   3.786   2.220   1.315  0.7523 -0.3298 -0.0339
 1799SOL     OW 5639   3.912   1.183   2.399  0.2734 -0.1976 -0.1689
 1799SOL    HW1 5640   3.930   1.238   2.323  1.6953  0.1119  0.3688
 1799SOL    HW2 5641   3.891   1.097   2.362  0.8588 -0.0257 -0.9149
 1800SOL     OW 5642   0.909   2.651   0.946  0.1349  0.5258  0.3816
 1800SOL    HW1 5643   0.835   2.680   0.892 -0.2281 -0.5005  0.3056
 1800SOL    HW2 5644   0.869   2.596   1.014  0.6203  1.5776  1.5531
 1801SOL     OW 5645   3.359   4.085   0.993  0.4747 -0.9056 -0.1019
 1801SOL    HW1 5646   3.408   4.158   0.954  0.2814 -0.4317  0.5306
 1801SOL    HW2 5647   3.391   4.080   1.083 -1.6113  0.3195  0.7659
 1802SOL     OW 5648   1.048   4.126   1.824 -0.2759 -0.4316 -0.3072
 1802SOL    HW1 5649   1.069   4.119   1.730  0.6036 -1.7412 -0.0484
 1802SOL    HW2 5650   0.963   4.084   1.833 -0.5734  0.1065 -0.5825
 1803SOL     OW 5651   1.284   2.896   2.021  0.4215  0.1161  0.1640
 1803SOL    HW1 5652   1.214   2.889   1.955  0.5991  3.0015 -0.4652
 1803SOL    HW2 5653   1.356   2.844   1.984  0.4411  1.4702 -1.8998
 1804SOL     OW 5654   1.090   0.728   2.124  0.0601 -0.2577 -0.0604
 1804SOL    HW1 5655   1.111   0.706   2.215 -0.7088  1.5964  0.6118
 1804SOL    HW2 5656   1.082   0.823   2.124 -0.7081 -0.2912 -1.9148
 1805SOL     OW 5657   0.264   2.595   1.684 -0.0372  0.3682  0.3965
 1805SOL    HW1 5658   0.294   2.617   1.772  3.1013 -0.6723 -0.2938
 1805SOL    HW2 5659   0.307   2.658   1.627 -1.6594  0.7322 -0.4762
 1806SOL     OW 5660   3.306   3.139   1.100  0.8818  0.0671 -0.1570
 1806SOL    HW1 5661   3.231   3.133   1.158  1.2250  1.4970  0.4611
 1806SOL    HW2 5662   3.344   3.051   1.102  0.2467 -0.2008  0.9017
 1807SOL     OW 5663   2.196   3.453   2.032 -0.0355 -0.7686 -0.4473
 1807SOL    HW1 5664   2.173   3.420   2.119 -0.9648 -0.1182 -0.4309
 1807SOL    HW2 5665   2.212   3.375   1.980 -1.2667 -1.2242 -0.1681
 1808SOL     OW 5666   3.648   0.691   0.735  0.0570  0.3001 -0.3533
 1808SOL    HW1 5667   3.725   0.696   0.679 -1.3116 -0.1792 -2.3622
 1808SOL    HW2 5668   3.590   0.760   0.703 -0.7102  0.1261  0.5902
 1809SOL     OW 5669   2.776   2.124   0.103  0.2857 -0.2927  0.0836
 1809SOL    HW1 5670   2.847   2.164   0.152 -1.7705  1.2282  2.0477
 1809SOL    HW2 5671   2.747   2.051   0.159  0.6629 -1.2816 -0.9825
 1810SOL     OW 5672   1.308   2.161   2.425 -0.4823 -0.0877  0.0370
 1810SOL    HW1 5673   1.302   2.218   2.503 -0.0833  0.3353 -0.2338
 1810SOL    HW2 5674   1.219   2.127   2.413 -0.6718  0.2853  0.3537
 1811SOL     OW 5675   2.863   1.014   0.560  0.2597 -0.5259  0.3516
 1811SOL    HW1 5676   2.930   0.956   0.598 -1.5512 -1.8588  1.6974
 1811SOL    HW2 5677   2.825   0.963   0.489  0.9031  0.3855 -0.6693
 1812SOL     OW 5678   2.906   2.241   1.116  0.4263 -0.1883  0.4410
 1812SOL    HW1 5679   2.874   2.155   1.142  1.0853 -0.4612  0.3731
 1812SOL    HW2 5680   2.929   2.285   1.198  0.8490 -0.3880  0.4345
 1813SOL     OW 5681   2.112   0.033   1.903  0.1550 -0.1871  0.4442
 1813SOL    HW1 5682   2.168  -0.031   1.947  0.7636  0.9335  1.3438
 1813SOL    HW2 5683   2.130   0.020   1.810 -0.1645 -1.6955  0.5679
 1814SOL     OW 5684   0.169   1.431   2.865 -0.5794  0.0093  0.0252
 1814SOL    HW1 5685   0.099   1.371   2.840 -1.9307  2.0782 -1.4457
 1814SOL    HW2 5686   0.130   1.490   2.929 -0.2665  1.2676 -0.9005
 1815SOL     OW 5687   4.137   2.111   0.939 -0.1859 -0.7649 -0.3003
 1815SOL    HW1 5688   4.208   2.047   0.942  1.4491  0.9471 -0.3309
 1815SOL    HW2 5689   4.131   2.144   1.029 -3.0526 -2.9712  0.4443
 1816SOL     OW 5690   4.386   3.052   1.835  0.0550 -0.5094 -0.6694
 1816SOL    HW1 5691   4.296   3.023   1.818 -1.6549  2.9137  1.3708
 1816SOL    HW2 5692   4.419   2.992   1.901 -0.6727 -1.8256 -1.4569
 1817SOL     OW 5693   0.974   0.758  -0.009  0.0726 -0.1486 -0.0742
 1817SOL    HW1 5694   1.050   0.778   0.044 -0.6950 -0.3596  1.1609
 1817SOL    HW2 5695   0.984   0.665  -0.031  0.4909 -0.0111 -0.4837
 1818SOL     OW 5696   2.653   1.216   0.428 -0.4760  0.5022 -0.2377
 1818SOL    HW1 5697   2.708   1.249   0.499  1.2461  1.3782 -1.8754
 1818SOL    HW2 5698   2.563   1.232   0.458  0.2114  1.9960  1.2232
 1819SOL     OW 5699   3.460   1.334   1.280 -0.5555 -0.0645  0.0319
 1819SOL    HW1 5700   3.531   1.396   1.293 -0.4669 -0.2368  0.3998
 1819SOL    HW2 5701   3.499   1.248   1.297 -0.5174 -0.2849 -1.1004
 1820SOL     OW 5702   3.740   1.074   0.761 -0.3248  0.4389 -0.6451
 1820SOL    HW1 5703   3.764   0.999   0.707  1.6430  0.0002  0.7420
 1820SOL    HW2 5704   3.814   1.087   0.820 -1.6485  1.9583  0.8143
 1821SOL     OW 5705   2.147   0.090   0.301  0.5484  0.5871 -0.6465
 1821SOL    HW1 5706   2.125  -0.001   0.321  1.1349  0.5101 -0.3354
 1821SOL    HW2 5707   2.219   0.111   0.360  0.5927  1.1729 -0.9002
 1822SOL     OW 5708   2.877   2.467   0.930 -0.1067  0.5288 -0.1903
 1822SOL    HW1 5709   2.902   2.456   0.838 -0.2783  0.1934 -0.1953
 1822SOL    HW2 5710   2.870   2.378   0.965 -0.4549  0.6440  0.0367
 1823SOL     OW 5711   3.033   0.734   2.251 -0.6665  0.3771 -0.0299
 1823SOL    HW1 5712   2.997   0.699   2.332  0.0182  1.2971  0.6995
 1823SOL    HW2 5713   3.005   0.672   2.183 -0.8726 -0.6519  0.9618
 1824SOL     OW 5714   2.949   0.026   1.491 -1.0422  0.4604 -0.0427
 1824SOL    HW1 5715   3.030  -0.024   1.477 -0.6403  1.2800 -0.7510
 1824SOL    HW2 5716   2.950   0.046   1.584  0.0222  1.1949 -0.1927
 1825SOL     OW 5717   0.653   4.402   1.671  0.2942 -0.5602 -0.2034
 1825SOL    HW1 5718   0.741   4.440   1.667  0.1328 -0.2296 -0.6334
 1825SOL    HW2 5719   0.666   4.316   1.712  0.9433 -0.9011 -1.0831
 1826SOL     OW 5720   2.425   0.740   1.351 -0.6828  0.0801 -0.2806
 1826SOL    HW1 5721   2.342   0.777   1.321 -0.4594 -0.4920 -1.7270
 1826SOL    HW2 5722   2.424   0.650   1.318  1.5739  0.8073 -2.6982
 1827SOL     OW 5723   0.848   1.406   0.507  0.0274  0.1843  0.4603
 1827SOL    HW1 5724   0.937   1.371   0.502  1.3031  2.7987  2.5100
 1827SOL    HW2 5725   0.830   1.436   0.417  2.1508  1.5922  0.4341
 1828SOL     OW 5726   1.365   0.976   1.450  0.2785  0.4656 -0.1471
 1828SOL    HW1 5727   1.349   1.063   1.487 -1.6433  0.8574 -1.7396
 1828SOL    HW2 5728   1.460   0.973   1.435  0.6688  1.4370  1.8533
 1829SOL     OW 5729   0.290   1.597   2.690  0.4376  0.3649 -0.1167
 1829SOL    HW1 5730   0.241   1.527   2.733 -0.4495  0.9903 -0.0825
 1829SOL    HW2 5731   0.375   1.598   2.735 -0.5385  1.1397  1.8320
 1830SOL     OW 5732   0.325   1.727   1.008 -0.3146  0.1658 -0.2372
 1830SOL    HW1 5733   0.368   1.790   0.951  0.2885 -0.9538 -1.0612
 1830SOL    HW2 5734   0.338   1.761   1.096  2.6970 -0.3393 -0.4024
 1831SOL     OW 5735   1.453   0.081   0.796  0.2659 -0.1013 -0.5295
 1831SOL    HW1 5736   1.504   0.080   0.715  2.5670  0.4368  0.8155
 1831SOL    HW2 5737   1.430   0.173   0.809 -0.5097 -0.2495 -0.7771
 1832SOL     OW 5738   3.567   4.235   2.517 -0.0769  0.7339 -0.6573
 1832SOL    HW1 5739   3.653   4.255   2.482  0.5812 -1.2083 -0.2496
 1832SOL    HW2 5740   3.533   4.320   2.546  0.7820  1.8500 -2.7463
 1833SOL     OW 5741   4.201   2.733   1.086 -0.1867  0.5387  0.5106
 1833SOL    HW1 5742   4.136   2.756   1.153  0.2218 -0.9678  1.4764
 1833SOL    HW2 5743   4.277   2.701   1.136  0.4310  0.1077 -0.6538
 1834SOL     OW 5744   3.616   2.434   0.508  0.3294 -0.4910 -0.3604
 1834SOL    HW1 5745   3.576   2.355   0.545 -0.9187  0.4902  0.4740
 1834SOL    HW2 5746   3.685   2.457   0.570 -0.6314  0.1787  0.4993
 1835SOL     OW 5747   0.949   1.009   1.658  0.2298 -0.4846  0.0751
 1835SOL    HW1 5748   0.972   0.928   1.612  1.1095  1.0364 -2.3418
 1835SOL    HW2 5749   0.853   1.013   1.653  0.2594 -0.7813 -0.8553
 1836SOL     OW 5750   2.363   4.208   1.364 -0.2670 -0.8130  0.2654
 1836SOL    HW1 5751   2.298   4.275   1.385  1.3571  0.8611  0.2205
 1836SOL    HW2 5752   2.405   4.240   1.284  2.8925 -0.0068  2.0634
 1837SOL     OW 5753   0.088   2.482   0.895 -0.3486  0.0418 -0.0197
 1837SOL    HW1 5754   0.032   2.436   0.832 -2.9621  1.8724  0.7972
 1837SOL    HW2 5755   0.159   2.518   0.842  0.2695 -2.5236 -1.0869
 1838SOL     OW 5756   2.582   2.404   0.685 -0.6022  0.0252 -1.1493
 1838SOL    HW1 5757   2.663   2.434   0.643 -0.3523  0.7253 -0.2059
 1838SOL    HW2 5758   2.532   2.365   0.614  1.7513 -3.0617 -1.3168
 1839SOL     OW 5759   3.039   3.857   0.419  0.3492  0.2263 -0.5222
 1839SOL    HW1 5760   2.998   3.835   0.502 -1.3057  2.2428 -0.7277
 1839SOL    HW2 5761   3.074   3.774   0.387 -0.9246 -1.0146  1.1283
 1840SOL     OW 5762   3.340   0.520   0.749  0.1747 -0.1123 -0.1378
 1840SOL    HW1 5763   3.258   0.476   0.772  1.1743 -1.1995  1.4878
 1840SOL    HW2 5764   3.312   0.606   0.717 -1.5002  1.3630  4.5121
 1841SOL     OW 5765   3.073   4.368   0.154 -0.4939  0.3345  0.3114
 1841SOL    HW1 5766   3.118   4.424   0.217  1.7066 -1.5937  0.5999
 1841SOL    HW2 5767   3.047   4.291   0.205  1.0916 -1.1411 -0.9601
 1842SOL     OW 5768   3.355   4.329   2.351  0.4745  0.1615  0.0243
 1842SOL    HW1 5769   3.368   4.370   2.266  2.3106 -0.2916  0.0567
 1842SOL    HW2 5770   3.433   4.275   2.364 -0.6108 -1.1929  1.2004
 1843SOL     OW 5771   3.379   2.151   2.861  0.2983  0.0188  0.1834
 1843SOL    HW1 5772   3.415   2.225   2.811 -0.0617  0.5217  0.6588
 1843SOL    HW2 5773   3.417   2.161   2.948  1.7256 -1.4305 -0.2275
 1844SOL     OW 5774   1.673   0.993   1.991  0.2915  0.4637 -0.1449
 1844SOL    HW1 5775   1.648   0.980   1.900  0.0958  1.1910 -0.1983
 1844SOL    HW2 5776   1.758   0.949   2.000  0.3590  0.4830 -0.7006
 1845SOL     OW 5777   0.472   3.706   2.499  0.4512  0.0889  0.5519
 1845SOL    HW1 5778   0.489   3.687   2.592 -0.3846  0.6230  0.8266
 1845SOL    HW2 5779   0.388   3.664   2.482  1.4985 -1.7129 -0.5217
 1846SOL     OW 5780   3.764   4.090   2.897  0.5437  0.3769  0.2393
 1846SOL    HW1 5781   3.690   4.071   2.838 -0.3341  2.0273  0.7302
 1846SOL    HW2 5782   3.760   4.022   2.963 -0.6342  0.4993  0.3190
 1847SOL     OW 5783   3.981   0.428   2.476  0.2738  0.0906 -0.2925
 1847SOL    HW1 5784   3.931   0.425   2.395  3.4418  1.7695 -2.5555
 1847SOL    HW2 5785   3.983   0.521   2.500  1.8335  0.0400 -0.0707
 1848SOL     OW 5786   1.370   4.359   2.603 -0.2487  0.1565 -0.3473
 1848SOL    HW1 5787   1.383   4.411   2.524  1.0020 -0.4995 -0.5926
 1848SOL    HW2 5788   1.342   4.422   2.669  2.8963  1.5247 -0.1417
 1849SOL     OW 5789   1.962   0.425   0.166  0.0310  0.1962 -0.0489
 1849SOL    HW1 5790   1.907   0.492   0.207  0.2860  0.7439 -0.5898
 1849SOL    HW2 5791   1.924   0.342   0.195 -2.5003  0.4765 -2.1817
 1850SOL     OW 5792   3.973   2.972   0.731 -0.5977 -0.2922  0.8007
 1850SOL    HW1 5793   4.056   2.924   0.737  0.2495  1.2123  1.8374
 1850SOL    HW2 5794   3.932   2.939   0.651  1.4218 -0.4344 -0.2553
 1851SOL     OW 5795   3.805   4.333   2.653  0.1738  0.6175 -0.0441
 1851SOL    HW1 5796   3.790   4.245   2.686 -0.2307  0.7640  0.1597
 1851SOL    HW2 5797   3.724   4.380   2.670  0.5992  1.2051  0.4028
 1852SOL     OW 5798   2.953   2.703   3.034  0.0891 -0.6106  0.2127
 1852SOL    HW1 5799   3.048   2.702   3.041  0.0626 -0.6438  0.6085
 1852SOL    HW2 5800   2.928   2.612   3.019 -0.0584 -1.1030  2.8911
 1853SOL     OW 5801   0.709   2.437   0.225  0.3389 -0.1601 -0.0721
 1853SOL    HW1 5802   0.668   2.513   0.265 -0.3916 -0.4062 -0.3447
 1853SOL    HW2 5803   0.686   2.364   0.283  0.0002 -0.3742 -0.4699
 1854SOL     OW 5804   1.866   0.166   2.814  0.2746  0.1656  0.6001
 1854SOL    HW1 5805   1.954   0.132   2.799  0.3496  0.9752 -1.0105
 1854SOL    HW2 5806   1.814   0.088   2.836  0.8568 -0.7373 -1.0355
 1855SOL     OW 5807   2.479   4.000   1.035  0.3259  0.0498 -0.1749
 1855SOL    HW1 5808   2.396   3.965   1.001  0.0162  0.9083 -0.3318
 1855SOL    HW2 5809   2.544   3.973   0.970  0.0969 -0.2175 -0.2978
 1856SOL     OW 5810   0.298   0.828   1.563 -0.3711  0.3117  0.2573
 1856SOL    HW1 5811   0.254   0.755   1.605  1.4104 -2.2748 -2.0576
 1856SOL    HW2 5812   0.231   0.866   1.505 -1.2348  0.3904  1.2826
 1857SOL     OW 5813   4.366   3.983   1.916 -0.6345  0.0689 -0.3949
 1857SOL    HW1 5814   4.365   3.931   1.997  2.6883  1.8149  1.0095
 1857SOL    HW2 5815   4.441   3.948   1.867  2.6921  3.9990  1.2720
 1858SOL     OW 5816   2.727   0.602   2.729 -0.1171  0.5065 -0.4506
 1858SOL    HW1 5817   2.733   0.694   2.757 -0.1939  0.6718 -0.9667
 1858SOL    HW2 5818   2.681   0.558   2.801 -1.0256  1.0812 -0.6537
 1859SOL     OW 5819   0.771   3.808   2.826  0.5018  0.2226  0.9343
 1859SOL    HW1 5820   0.750   3.890   2.781 -0.3070  0.3799  1.5842
 1859SOL    HW2 5821   0.742   3.821   2.916  0.2266 -0.8343  1.0144
 1860SOL     OW 5822   4.331   2.732   2.621  0.3976  0.6661 -0.1586
 1860SOL    HW1 5823   4.415   2.705   2.657 -0.3034 -1.1776  0.1802
 1860SOL    HW2 5824   4.268   2.670   2.657 -0.5914 -0.2713 -3.2234
 1861SOL     OW 5825   2.296   3.082   2.853  0.2792 -0.3732  0.6665
 1861SOL    HW1 5826   2.320   3.008   2.910  1.9826 -0.3571  0.0301
 1861SOL    HW2 5827   2.316   3.160   2.905  2.2511 -0.3510 -0.0283
 1862SOL     OW 5828   2.907   3.002   2.855 -0.2074 -0.3923  0.1356
 1862SOL    HW1 5829   2.995   2.985   2.822 -0.4292 -0.9085 -0.1881
 1862SOL    HW2 5830   2.889   2.929   2.914  0.2645  0.6098  1.5783
 1863SOL     OW 5831   2.142   1.175   3.129  0.1007  0.2756  0.2379
 1863SOL    HW1 5832   2.127   1.090   3.089  0.6718  0.5816 -0.6722
 1863SOL    HW2 5833   2.224   1.206   3.089  1.3586  0.0989  2.5122
 1864SOL     OW 5834   1.999   4.111   1.839  0.0244 -0.7517 -0.3951
 1864SOL    HW1 5835   1.936   4.047   1.804 -0.7491 -0.5225  0.5344
 1864SOL    HW2 5836   2.041   4.064   1.911  0.7228 -0.8065 -0.8380
 1865SOL     OW 5837   4.187   0.318   0.731  0.8316 -0.0763  0.4699
 1865SOL    HW1 5838   4.170   0.293   0.640  1.2299  0.5418  0.2132
 1865SOL    HW2 5839   4.135   0.257   0.783  0.7534 -0.5654 -0.1661
 1866SOL     OW 5840   3.726   3.375   0.933 -0.1001 -0.2436 -0.5343
 1866SOL    HW1 5841   3.734   3.443   0.999  0.4264 -1.5596  0.8190
 1866SOL    HW2 5842   3.646   3.396   0.885 -1.1082  0.1641  1.2402
 1867SOL     OW 5843   2.485   2.098   3.107 -0.0607 -0.3005  0.5795
 1867SOL    HW1 5844   2.479   2.072   3.015 -1.6063  0.4792  0.4378
 1867SOL    HW2 5845   2.571   2.140   3.114  0.4966 -1.2586 -0.2573
 1868SOL     OW 5846   0.777   2.677   2.721  0.5211 -0.1032 -0.3140
 1868SOL    HW1 5847   0.695   2.724   2.714  0.1056 -0.4691  1.5880
 1868SOL    HW2 5848   0.841   2.743   2.749 -0.2444 -0.6829  3.2398
 1869SOL     OW 5849   3.114   3.559   2.639 -0.2956  0.3730 -0.0375
 1869SOL    HW1 5850   3.123   3.500   2.714  0.2104  1.1310  0.5195
 1869SOL    HW2 5851   3.110   3.501   2.563  0.6632 -0.3704  0.4555
 1870SOL     OW 5852   3.103   4.049   0.889  0.5249 -0.1938  0.0793
 1870SOL    HW1 5853   3.177   4.093   0.931  0.7905  2.0274 -2.4678
 1870SOL    HW2 5854   3.029   4.108   0.904  0.5186  0.3983 -1.9980
 1871SOL     OW 5855   3.175   3.627   0.345  0.5314 -0.0039  0.7178
 1871SOL    HW1 5856   3.232   3.697   0.312 -0.3285  1.5419  2.3543
 1871SOL    HW2 5857   3.228   3.583   0.411  0.7220 -0.2429  0.4065
 1872SOL     OW 5858   0.744   3.594   2.459  0.0817 -0.1479 -0.3464
 1872SOL    HW1 5859   0.827   3.641   2.453  0.3594 -0.5588  0.1328
 1872SOL    HW2 5860   0.684   3.656   2.501 -0.7233  1.2378 -3.3017
 1873SOL     OW 5861   0.885   0.379   1.407  0.1508 -0.5140 -0.0841
 1873SOL    HW1 5862   0.870   0.420   1.322  1.4354 -0.2028 -0.1760
 1873SOL    HW2 5863   0.955   0.431   1.447 -0.8629 -0.2746  1.4388
 1874SOL     OW 5864   3.726   1.446   0.841  0.2431  0.6687 -0.6523
 1874SOL    HW1 5865   3.649   1.442   0.784 -0.0153  1.5231 -0.3796
 1874SOL    HW2 5866   3.796   1.407   0.789 -0.8140 -2.2011 -0.1267
 1875SOL     OW 5867   4.105   3.978   3.037 -0.0998 -0.2399 -0.2522
 1875SOL    HW1 5868   4.032   4.021   3.080  0.4383  0.9724 -0.5153
 1875SOL    HW2 5869   4.076   3.964   2.947 -0.2638 -0.3874 -0.1755
 1876SOL     OW 5870   3.999   4.328   0.755  0.3218  0.2551 -0.5145
 1876SOL    HW1 5871   3.957   4.247   0.786  2.6672 -0.5503  0.7884
 1876SOL    HW2 5872   4.069   4.297   0.697  0.9486  1.3644 -0.3699
 1877SOL     OW 5873   4.083   2.785   2.899 -0.2353 -0.3520  0.3678
 1877SOL    HW1 5874   4.156   2.847   2.900 -1.1545  0.8893 -1.5169
 1877SOL    HW2 5875   4.096   2.734   2.819 -1.2880 -0.2421  0.1072
 1878SOL     OW 5876   0.087   1.575   0.546 -0.4756 -0.0105 -0.5735
 1878SOL    HW1 5877   0.176   1.547   0.569 -0.2642  1.6082  0.7419
 1878SOL    HW2 5878   0.061   1.515   0.476  0.2585 -2.8961  1.4295
 1879SOL     OW 5879   3.358   4.107   1.993 -0.3939 -0.2015 -0.8346
 1879SOL    HW1 5880   3.357   4.066   1.906 -1.0837 -1.2219 -0.3650
 1879SOL    HW2 5881   3.305   4.186   1.983 -0.4887 -0.3250 -1.3368
 1880SOL     OW 5882   3.966   0.357   1.828  0.3436  0.0768 -0.2200
 1880SOL    HW1 5883   4.035   0.296   1.854 -0.6518 -0.6643  0.7139
 1880SOL    HW2 5884   3.969   0.427   1.893 -0.3335 -0.3830  0.3120
 1881SOL     OW 5885   1.159   1.866   1.830  0.5048 -0.1660 -0.1780
 1881SOL    HW1 5886   1.090   1.930   1.847  0.3487 -0.2385 -0.5287
 1881SOL    HW2 5887   1.189   1.839   1.917 -0.6683 -0.9686 -0.0092
 1882SOL     OW 5888   0.343   1.219   0.338  0.5393 -0.0029 -0.2198
 1882SOL    HW1 5889   0.379   1.167   0.266  2.4237  1.5723 -0.4734
 1882SOL    HW2 5890   0.333   1.307   0.302  0.1313  0.4865  1.0385
 1883SOL     OW 5891   4.181   3.282   0.831 -0.3863  0.4405  0.0274
 1883SOL    HW1 5892   4.192   3.352   0.895 -1.8568 -0.4017  1.2954
 1883SOL    HW2 5893   4.188   3.202   0.884 -2.0506 -0.2706 -0.7713
 1884SOL     OW 5894   1.674   3.609   3.100  0.3543 -0.0683 -0.2388
 1884SOL    HW1 5895   1.587   3.646   3.090  0.8400  0.9177 -1.0388
 1884SOL    HW2 5896   1.733   3.685   3.096  1.2273 -0.6850  0.5559
 1885SOL     OW 5897   1.178   3.503   1.551 -0.5620 -0.4465  0.3048
 1885SOL    HW1 5898   1.157   3.419   1.511 -1.5025 -0.0759 -0.0131
 1885SOL    HW2 5899   1.103   3.559   1.529 -0.3396  0.2271  1.2282
 1886SOL     OW 5900   3.738   2.509   2.910  0.3282 -0.3488 -0.3308
 1886SOL    HW1 5901   3.787   2.508   2.992 -0.7459 -0.5331  0.3234
 1886SOL    HW2 5902   3.797   2.469   2.846  0.8316 -1.0475  0.5554
 1887SOL     OW 5903   3.626   1.019   0.423  0.0767  0.5027  0.0004
 1887SOL    HW1 5904   3.674   1.102   0.414 -0.8483  0.9096 -1.4344
 1887SOL    HW2 5905   3.626   0.981   0.336 -1.9316  0.3807  0.0051
 1888SOL     OW 5906   1.808   1.466   0.621  0.4905  0.2440  0.0844
 1888SOL    HW1 5907   1.770   1.378   0.625 -0.3676  0.4700 -1.7805
 1888SOL    HW2 5908   1.897   1.456   0.655  0.3097 -1.2684  0.1805
 1889SOL     OW 5909   2.793   2.294   0.544  0.2458 -0.1300 -0.3588
 1889SOL    HW1 5910   2.747   2.222   0.499 -2.8731  1.4621 -0.0246
 1889SOL    HW2 5911   2.802   2.264   0.634 -1.1942 -0.1162 -0.1801
 1890SOL     OW 5912   1.511   3.801   0.744  0.6925  0.8480  0.2935
 1890SOL    HW1 5913   1.417   3.782   0.736  0.7263  0.9819 -0.4694
 1890SOL    HW2 5914   1.548   3.721   0.780  0.6060 -0.0401 -1.4585
 1891SOL     OW 5915   0.250   3.357   3.000  0.0708 -0.4224 -0.2067
 1891SOL    HW1 5916   0.340   3.374   2.975  0.0706 -1.7588 -1.2733
 1891SOL    HW2 5917   0.202   3.435   2.974  0.6449 -0.4198 -1.3221
 1892SOL     OW 5918   1.830   0.783   0.036 -0.2582 -0.0899  0.3835
 1892SOL    HW1 5919   1.922   0.767   0.052 -0.5890 -0.1955  2.4867
 1892SOL    HW2 5920   1.798   0.704  -0.007 -0.2102 -1.8827  3.4254
 1893SOL     OW 5921   0.765   1.475   2.633  1.0069 -0.4833 -0.4118
 1893SOL    HW1 5922   0.762   1.568   2.655 -1.3775 -0.4141 -0.7483
 1893SOL    HW2 5923   0.845   1.443   2.674  0.8858  1.3132  1.3767
 1894SOL     OW 5924   3.891   2.201   2.495 -0.3847 -0.3100 -0.1770
 1894SOL    HW1 5925   3.904   2.109   2.471 -1.2379 -0.9814  1.7201
 1894SOL    HW2 5926   3.808   2.226   2.455 -0.8344 -0.8145  0.4174
 1895SOL     OW 5927   2.030   3.358   2.921 -0.2708 -0.0729  0.6910
 1895SOL    HW1 5928   1.979   3.416   2.864 -0.1036 -0.7410 -0.1581
 1895SOL    HW2 5929   2.092   3.315   2.862  0.1226 -0.5488  1.4380
 1896SOL     OW 5930   0.821   0.988   0.978  0.6731  0.8329  0.0532
 1896SOL    HW1 5931   0.738   0.963   1.019  1.6292 -0.5712  1.2106
 1896SOL    HW2 5932   0.851   1.063   1.030  0.7762  0.4915  0.4890
 1897CL      CL 5933   0.586   3.395   2.892  0.0037  0.4156 -0.1509
   4.40801   4.40801   3.11694   0.00000   0.00000   0.00000   0.00000   2.20401   2.20401
