TC5B in water
 5933
    1ASN      N    1   2.393   3.685   1.487 -0.0326 -0.1644 -0.2285
    1ASN     H1    2   2.438   3.775   1.475  0.1353  0.0196  1.5235
    1ASN     H2    3   2.296   3.703   1.509  0.7596  3.8503  0.6556
    1ASN     H3    4   2.443   3.652   1.569 -0.7345 -1.1161 -0.1625
    1ASN     CA    5   2.422   3.594   1.369 -0.2901 -0.4544 -0.1196
    1ASN     HA    6   2.385   3.495   1.396  0.6045 -0.6153  0.5605
    1ASN     CB    7   2.332   3.628   1.243  0.2318 -0.2074 -0.7760
    1ASN    HB1    8   2.339   3.555   1.163 -1.6582  0.9970 -2.1136
    1ASN    HB2    9   2.356   3.721   1.190  1.8255  0.2179  0.6042
    1ASN     CG   10   2.179   3.635   1.278 -0.7990 -0.1501 -0.1350
    1ASN    OD1   11   2.132   3.582   1.375 -0.2969 -0.1100  0.0282
    1ASN    ND2   12   2.102   3.706   1.200 -0.1010  0.2186  0.2324
    1ASN   HD21   13   2.140   3.757   1.121  0.5992  0.3062  0.6139
    1ASN   HD22   14   2.005   3.700   1.226 -0.3474 -1.3073 -0.9360
    1ASN      C   15   2.571   3.578   1.335 -0.1874  0.7127  0.3728
    1ASN      O   16   2.633   3.475   1.338  0.2652 -0.2300  0.1027
    2LEU      N   17   2.645   3.691   1.329  0.2642 -0.2064  0.7584
    2LEU      H   18   2.601   3.781   1.344  0.3866 -0.1357  0.6873
    2LEU     CA   19   2.788   3.697   1.293 -0.2754  0.3669 -0.2520
    2LEU     HA   20   2.820   3.641   1.206  2.9032 -0.8607  1.5503
    2LEU     CB   21   2.821   3.841   1.256 -0.6852  0.4964 -0.6998
    2LEU    HB1   22   2.775   3.862   1.160  2.0916 -1.3172 -2.5810
    2LEU    HB2   23   2.927   3.845   1.230 -0.3379  2.7578  0.7292
    2LEU     CG   24   2.799   3.953   1.360  0.0421 -0.3929 -0.8198
    2LEU     HG   25   2.718   3.923   1.426  0.8884 -1.9730 -0.4360
    2LEU    CD1   26   2.921   3.981   1.444 -0.2291 -0.5187 -0.0378
    2LEU   HD11   27   2.906   4.078   1.492  1.4029  0.0753 -0.6456
    2LEU   HD12   28   2.930   3.906   1.522 -2.0074 -0.3889  0.3241
    2LEU   HD13   29   3.011   3.999   1.385  2.1724 -3.5538  2.3619
    2LEU    CD2   30   2.780   4.093   1.295  0.4180  0.1075  0.5609
    2LEU   HD21   31   2.850   4.122   1.217  0.9015  1.1343  1.3527
    2LEU   HD22   32   2.682   4.090   1.248  0.2250  1.7636  0.8026
    2LEU   HD23   33   2.775   4.169   1.373  2.1890 -0.2200  1.0363
    2LEU      C   34   2.876   3.627   1.405  0.5835 -0.2864  0.3141
    2LEU      O   35   2.964   3.549   1.372 -0.0328  0.1520 -0.2348
    3TYR      N   36   2.847   3.638   1.533  0.7836  0.4577 -0.0598
    3TYR      H   37   2.771   3.701   1.554  2.5075  2.4278  0.6867
    3TYR     CA   38   2.909   3.566   1.646 -0.0096 -0.8945 -0.3005
    3TYR     HA   39   3.017   3.577   1.642 -0.2001  1.2471 -0.5760
    3TYR     CB   40   2.892   3.648   1.777 -0.3734  0.4591  0.2666
    3TYR    HB1   41   2.804   3.614   1.832  1.1358 -0.6089  2.1532
    3TYR    HB2   42   2.877   3.752   1.750  1.4861  0.5038 -0.8236
    3TYR     CG   43   3.014   3.643   1.870  0.1754  0.0247 -0.5309
    3TYR    CD1   44   3.017   3.537   1.967  0.2785 -0.8365  0.1369
    3TYR    HD1   45   2.938   3.464   1.962 -1.7073  1.1310  0.8314
    3TYR    CE1   46   3.107   3.534   2.068  0.0068  0.0155 -0.7600
    3TYR    HE1   47   3.092   3.460   2.146 -1.8932  0.1735 -0.9162
    3TYR     CZ   48   3.202   3.634   2.081  0.0385 -0.1144 -0.7027
    3TYR     OH   49   3.287   3.638   2.187 -0.0607 -0.4818  0.8156
    3TYR     HH   50   3.322   3.726   2.199  2.9225 -1.6178  1.4264
    3TYR    CE2   51   3.211   3.734   1.978 -0.1173 -0.4824 -0.6524
    3TYR    HE2   52   3.286   3.811   1.989 -1.6499  0.7585  1.7204
    3TYR    CD2   53   3.110   3.744   1.875  0.0572 -0.2228 -0.9303
    3TYR    HD2   54   3.111   3.831   1.811 -0.1110  3.5832  3.6517
    3TYR      C   55   2.873   3.417   1.664  0.0946  0.8951  0.6032
    3TYR      O   56   2.970   3.345   1.680 -0.2735 -0.2667 -0.1354
    4ILE      N   57   2.750   3.375   1.626  0.4622  0.7106  0.3476
    4ILE      H   58   2.681   3.445   1.602 -2.7592 -2.0118  1.0404
    4ILE     CA   59   2.700   3.236   1.614 -0.1247 -0.0328 -0.4760
    4ILE     HA   60   2.718   3.182   1.707  0.2948  2.4299  0.9601
    4ILE     CB   61   2.553   3.221   1.576 -0.1115 -0.8073  0.1761
    4ILE     HB   62   2.546   3.244   1.470  0.9172 -0.0322  0.2615
    4ILE    CG2   63   2.508   3.072   1.584  0.0149  0.4666  0.1232
    4ILE   HG21   64   2.510   3.036   1.687 -1.7501 -2.5326 -0.7801
    4ILE   HG22   65   2.403   3.057   1.561 -0.0777  0.0871  0.7719
    4ILE   HG23   66   2.567   3.010   1.517  1.7090  3.3353 -1.2718
    4ILE    CG1   67   2.458   3.305   1.662  0.4569 -0.4127  0.2886
    4ILE   HG11   68   2.354   3.280   1.645  0.3848 -0.9779  1.4401
    4ILE   HG12   69   2.463   3.407   1.624  1.8760 -0.4470  0.3276
    4ILE     CD   70   2.479   3.308   1.815  0.2286 -0.1085  0.9512
    4ILE    HD1   71   2.466   3.208   1.855 -0.2266  0.7753  3.1566
    4ILE    HD2   72   2.573   3.349   1.852  0.6529 -1.4133  1.3666
    4ILE    HD3   73   2.398   3.370   1.855 -2.3517 -2.0712 -0.8768
    4ILE      C   74   2.786   3.174   1.506 -0.0106 -0.1247  0.0660
    4ILE      O   75   2.833   3.062   1.511  0.9395  0.0756  0.3464
    5GLN      N   76   2.810   3.240   1.390  0.8013  0.5210  0.0528
    5GLN      H   77   2.771   3.333   1.381  0.0154  0.3258  1.1935
    5GLN     CA   78   2.876   3.178   1.270  0.3103  0.0293  0.6672
    5GLN     HA   79   2.825   3.086   1.241  0.0443  0.9008 -1.7929
    5GLN     CB   80   2.865   3.277   1.150 -0.3787  0.5680  0.2106
    5GLN    HB1   81   2.955   3.339   1.151 -1.0368  1.5511 -0.8459
    5GLN    HB2   82   2.783   3.347   1.161 -0.0319  0.9182  0.6463
    5GLN     CG   83   2.856   3.209   1.013  0.2919 -0.4279 -0.1494
    5GLN    HG1   84   2.933   3.134   0.998 -1.6967 -2.5420 -0.2964
    5GLN    HG2   85   2.865   3.285   0.936 -1.2805 -0.8853 -0.8205
    5GLN     CD   86   2.722   3.139   0.989  0.2966  0.4428  0.3743
    5GLN    OE1   87   2.708   3.024   1.027 -0.1859  0.1975  0.0838
    5GLN    NE2   88   2.626   3.206   0.934  0.1507 -0.0302 -0.2728
    5GLN   HE21   89   2.638   3.304   0.910 -1.8412  0.4435  0.3868
    5GLN   HE22   90   2.533   3.168   0.928 -1.1318  2.5437  1.1626
    5GLN      C   91   3.023   3.146   1.298 -0.0714  0.2853 -0.0568
    5GLN      O   92   3.078   3.052   1.242  0.1858  0.1542  0.1158
    6TRP      N   93   3.074   3.230   1.388 -0.1673  0.2015 -0.2807
    6TRP      H   94   3.015   3.302   1.428 -0.8195 -1.0749  1.1667
    6TRP     CA   95   3.215   3.211   1.444  0.2414  0.0322  0.3131
    6TRP     HA   96   3.284   3.187   1.364 -0.8877  3.7348 -2.0113
    6TRP     CB   97   3.261   3.348   1.505 -0.6917  0.0746  0.0022
    6TRP    HB1   98   3.188   3.383   1.578 -1.4248  1.0099 -1.1366
    6TRP    HB2   99   3.264   3.423   1.426 -2.9234 -1.3262 -1.5342
    6TRP     CG  100   3.392   3.344   1.571 -0.4658  0.6479  0.5187
    6TRP    CD1  101   3.516   3.339   1.506  0.2154  0.1133  0.4972
    6TRP    HD1  102   3.531   3.344   1.400  0.6914 -0.3667  0.5375
    6TRP    NE1  103   3.613   3.328   1.601 -0.2842 -0.0470 -0.6364
    6TRP    HE1  104   3.709   3.329   1.569 -0.7014  0.2497 -1.9562
    6TRP    CE2  105   3.567   3.339   1.727  0.3064 -0.1094  0.0839
    6TRP    CZ2  106   3.639   3.331   1.851  0.6677  0.4947  0.1219
    6TRP    HZ2  107   3.745   3.311   1.858  0.8170  0.8077 -1.0004
    6TRP    CH2  108   3.566   3.350   1.962  0.2279  0.1981 -0.3444
    6TRP    HH2  109   3.614   3.344   2.059  0.7118 -0.9462 -0.6419
    6TRP    CZ3  110   3.427   3.372   1.960  0.7027 -0.3311 -0.7372
    6TRP    HZ3  111   3.370   3.383   2.051  0.2510 -1.1390 -0.9179
    6TRP    CE3  112   3.361   3.375   1.833 -0.4715  0.2567  0.1850
    6TRP    HE3  113   3.256   3.398   1.838 -0.6018 -0.4921  1.2622
    6TRP    CD2  114   3.425   3.356   1.713 -0.6579  0.6236 -0.0874
    6TRP      C  115   3.219   3.088   1.552 -0.1828  0.0476 -0.6486
    6TRP      O  116   3.293   2.991   1.546  0.4107  0.4783 -0.6896
    7LEU      N  117   3.130   3.098   1.653 -0.3574  0.0011 -0.3222
    7LEU      H  118   3.073   3.181   1.660 -0.5821 -0.0421 -1.4236
    7LEU     CA  119   3.118   2.998   1.749 -1.1944 -0.5875 -0.2409
    7LEU     HA  120   3.216   2.986   1.796 -1.2673 -1.3311 -0.2725
    7LEU     CB  121   3.009   3.046   1.850  0.1321 -0.5465  0.3312
    7LEU    HB1  122   2.977   2.958   1.906  0.4919  0.3944  2.0856
    7LEU    HB2  123   2.919   3.084   1.802 -0.7280 -0.8098  1.6964
    7LEU     CG  124   3.066   3.148   1.955  0.4036 -0.3207  0.1367
    7LEU     HG  125   3.090   3.237   1.898  1.9632 -0.2866  0.8257
    7LEU    CD1  126   2.947   3.184   2.051  0.1596 -0.0980 -0.4020
    7LEU   HD11  127   2.970   3.259   2.126 -0.1005 -0.1748 -0.2442
    7LEU   HD12  128   2.863   3.220   1.991  1.5494  1.8381 -1.3101
    7LEU   HD13  129   2.925   3.087   2.095 -0.7965  0.9161  1.4476
    7LEU    CD2  130   3.191   3.100   2.033 -0.4580  0.1154 -0.2137
    7LEU   HD21  131   3.204   3.133   2.136  2.4037  0.7516 -0.6925
    7LEU   HD22  132   3.204   2.992   2.032 -1.0732  0.0273  0.6132
    7LEU   HD23  133   3.283   3.132   1.984  0.2006  0.8869  1.4314
    7LEU      C  134   3.088   2.857   1.700 -0.3021  0.7828  0.5605
    7LEU      O  135   3.150   2.762   1.743 -0.1428  0.0234 -0.2286
    8LYS      N  136   2.997   2.842   1.602 -0.6230 -0.2657 -0.0922
    8LYS      H  137   2.925   2.910   1.582 -1.6321 -1.4325 -0.5930
    8LYS     CA  138   2.973   2.711   1.532  0.0906 -0.4679 -0.1127
    8LYS     HA  139   2.942   2.639   1.608  1.1489 -0.3765  0.4242
    8LYS     CB  140   2.851   2.717   1.437 -0.4958 -0.0376  0.5043
    8LYS    HB1  141   2.760   2.759   1.480 -1.1155 -1.5042  0.6906
    8LYS    HB2  142   2.816   2.617   1.415 -3.0882  0.2192  2.8584
    8LYS     CG  143   2.859   2.794   1.306  0.8444  0.0824 -0.3200
    8LYS    HG1  144   2.915   2.888   1.312 -1.6127  1.8227 -2.1380
    8LYS    HG2  145   2.758   2.827   1.281  0.9017  0.2356 -0.3514
    8LYS     CD  146   2.903   2.714   1.185  0.3790 -0.1135 -0.3844
    8LYS    HD1  147   2.821   2.643   1.171 -0.0647 -0.3861  2.8287
    8LYS    HD2  148   2.993   2.655   1.203  0.1043 -1.0662 -2.0125
    8LYS     CE  149   2.911   2.805   1.060 -0.5605 -0.0516  0.0071
    8LYS    HE1  150   2.970   2.893   1.087 -0.8214  1.7068 -4.4156
    8LYS    HE2  151   2.811   2.832   1.028 -0.9092 -0.0916  1.0170
    8LYS     NZ  152   2.977   2.731   0.956  0.0680  0.0484 -0.3173
    8LYS    HZ1  153   3.075   2.725   0.981 -0.8592 -0.2195  3.9805
    8LYS    HZ2  154   2.921   2.651   0.930  2.6642 -1.6904 -0.9577
    8LYS    HZ3  155   2.975   2.782   0.869  2.1725 -0.8772 -0.9766
    8LYS      C  156   3.094   2.655   1.454 -0.6279 -0.7541  0.1881
    8LYS      O  157   3.103   2.534   1.441  0.1721  0.1667  0.0438
    9ASP      N  158   3.189   2.737   1.406 -0.0248  0.7372 -0.0194
    9ASP      H  159   3.172   2.835   1.423 -2.6641  0.2106  0.8878
    9ASP     CA  160   3.321   2.691   1.358  0.4000  0.3715  0.0740
    9ASP     HA  161   3.307   2.602   1.296  1.6341  1.2610 -1.5623
    9ASP     CB  162   3.381   2.795   1.264 -0.1217 -0.6724 -0.6692
    9ASP    HB1  163   3.490   2.786   1.260 -0.0273 -0.4765  0.8668
    9ASP    HB2  164   3.364   2.898   1.296  2.4963  0.4046 -2.4299
    9ASP     CG  165   3.333   2.786   1.119 -0.0449  0.2637  0.2588
    9ASP    OD1  166   3.226   2.722   1.091 -0.5818  0.0417  0.1697
    9ASP    OD2  167   3.405   2.839   1.032 -0.3996 -0.3818  0.2339
    9ASP      C  168   3.417   2.645   1.467 -0.2485 -1.1138 -0.2817
    9ASP      O  169   3.528   2.604   1.433 -0.3968 -0.0346 -0.0558
   10GLY      N  170   3.388   2.651   1.594  0.0208 -0.0044 -0.1274
   10GLY      H  171   3.293   2.681   1.614 -0.8569 -1.5477 -1.6732
   10GLY     CA  172   3.483   2.630   1.709 -0.7499 -0.5921  0.6573
   10GLY    HA1  173   3.571   2.568   1.690  0.0726  0.5873  0.4840
   10GLY    HA2  174   3.426   2.581   1.787 -0.6050 -0.3059  0.9424
   10GLY      C  175   3.544   2.756   1.773 -0.4140  0.6281  0.4337
   10GLY      O  176   3.628   2.742   1.860  0.2480  0.1195 -0.3151
   11GLY      N  177   3.510   2.877   1.727  0.0527  0.8144 -0.3011
   11GLY      H  178   3.436   2.881   1.659 -1.5203 -0.5668  1.2379
   11GLY     CA  179   3.556   3.005   1.791 -0.5675 -0.1785  0.2925
   11GLY    HA1  180   3.526   3.000   1.895  0.7445 -2.2163  0.6201
   11GLY    HA2  181   3.514   3.087   1.732  1.9308 -0.1203 -1.5760
   11GLY      C  182   3.707   3.016   1.800 -0.3855 -0.0396 -0.5658
   11GLY      O  183   3.770   3.019   1.690  0.6572  0.0330 -0.2495
   12PRO      N  184   3.778   3.040   1.912  0.2323 -0.1368  0.5680
   12PRO     CD  185   3.732   3.028   2.050 -0.2367 -0.4594  0.1139
   12PRO    HD1  186   3.667   2.942   2.068 -1.1780 -0.3197 -2.2728
   12PRO    HD2  187   3.678   3.120   2.072 -0.8949 -1.0800  1.1717
   12PRO     CG  188   3.861   3.022   2.138  0.3022  0.2994 -0.0748
   12PRO    HG1  189   3.901   2.923   2.159  0.2487  0.5240  1.1464
   12PRO    HG2  190   3.853   3.065   2.238  1.8713 -2.4422  1.3471
   12PRO     CB  191   3.957   3.099   2.055  0.0966 -0.9833  0.3092
   12PRO    HB1  192   4.062   3.077   2.076  0.4681  0.7738  0.4574
   12PRO    HB2  193   3.941   3.206   2.068  2.1090 -0.8893  2.8687
   12PRO     CA  194   3.923   3.063   1.912  0.1382  0.5114  0.8090
   12PRO     HA  195   3.948   3.146   1.845 -1.0588  0.3038  0.0794
   12PRO      C  196   4.001   2.946   1.860 -0.1726  0.5055  0.6405
   12PRO      O  197   4.114   2.955   1.816  0.2797  0.0810  0.1539
   13SER      N  198   3.947   2.825   1.882  0.7838  0.2285  0.2908
   13SER      H  199   3.850   2.824   1.909  0.8663 -1.9522  0.6242
   13SER     CA  200   4.001   2.695   1.834  0.4208 -0.3141 -0.0339
   13SER     HA  201   4.106   2.695   1.863  0.4815  3.6671  0.3744
   13SER     CB  202   3.941   2.577   1.914 -0.8269  0.3973 -0.0702
   13SER    HB1  203   4.006   2.489   1.907  0.4009  1.1593  1.1339
   13SER    HB2  204   3.844   2.549   1.874 -0.0832  0.3208 -1.9400
   13SER     OG  205   3.932   2.611   2.053 -0.2802 -0.3295 -1.0608
   13SER     HG  206   3.968   2.534   2.097  2.0047 -0.4869 -3.0137
   13SER      C  207   3.988   2.669   1.680 -0.0705 -0.1952 -0.2614
   13SER      O  208   4.010   2.560   1.639  0.3702 -0.1496  1.0086
   14SER      N  209   3.961   2.769   1.603  0.5150 -0.5882 -0.3374
   14SER      H  210   3.926   2.852   1.650 -1.1411 -2.3368  1.7458
   14SER     CA  211   3.928   2.762   1.453 -0.5450 -0.2945 -0.2019
   14SER     HA  212   3.949   2.660   1.420 -0.1546 -0.1013 -0.5497
   14SER     CB  213   3.780   2.793   1.440 -0.3125 -0.2008 -0.4349
   14SER    HB1  214   3.748   2.897   1.446  0.2716 -0.0228 -0.4348
   14SER    HB2  215   3.728   2.743   1.523  1.2091  1.6799  1.7627
   14SER     OG  216   3.745   2.735   1.316  0.1461  0.1336 -0.5034
   14SER     HG  217   3.701   2.651   1.329 -2.0642  1.1036 -1.2938
   14SER      C  218   4.021   2.856   1.374 -0.1921 -0.1106 -0.1422
   14SER      O  219   4.012   2.862   1.253  0.3209 -0.2198 -0.0243
   15GLY      N  220   4.118   2.914   1.437 -0.2990 -0.3072  0.7904
   15GLY      H  221   4.123   2.900   1.537  2.7384  2.1482  1.1310
   15GLY     CA  222   4.224   2.993   1.380 -0.1950  0.0406  0.7076
   15GLY    HA1  223   4.264   2.929   1.302 -0.4769  1.4856 -0.6648
   15GLY    HA2  224   4.296   3.019   1.458 -0.3822 -1.3554  1.3934
   15GLY      C  225   4.177   3.123   1.321 -0.4073  0.0343  0.0135
   15GLY      O  226   4.237   3.174   1.224  0.3496 -0.1509 -0.3976
   16ARG      N  227   4.069   3.176   1.376  0.5170 -0.2722 -0.0041
   16ARG      H  228   4.037   3.124   1.456  0.7953 -2.9262 -1.5147
   16ARG     CA  229   4.004   3.302   1.350  0.5372 -0.1907  0.0743
   16ARG     HA  230   4.067   3.364   1.286 -2.6122  2.7233 -0.4940
   16ARG     CB  231   3.871   3.277   1.274 -0.4077  0.1700 -0.1525
   16ARG    HB1  232   3.889   3.258   1.168  1.1316  1.3806 -0.1538
   16ARG    HB2  233   3.801   3.360   1.268 -2.1160 -1.3266 -2.7284
   16ARG     CG  234   3.780   3.164   1.335 -0.1716  0.4425  0.8621
   16ARG    HG1  235   3.720   3.213   1.412 -0.2611  2.2413 -0.2905
   16ARG    HG2  236   3.835   3.077   1.371  0.2842  0.4577  0.2114
   16ARG     CD  237   3.681   3.103   1.228 -0.0773 -0.5988  0.2243
   16ARG    HD1  238   3.642   3.181   1.162  1.7007 -1.4746 -1.9789
   16ARG    HD2  239   3.595   3.075   1.289  0.1466 -0.2781  0.7001
   16ARG     NE  240   3.741   2.987   1.154 -0.3503 -0.3041  0.5605
   16ARG     HE  241   3.725   2.900   1.204  2.5514 -1.2972 -0.0652
   16ARG     CZ  242   3.798   2.977   1.033 -0.2522 -0.4632  0.4230
   16ARG    NH1  243   3.825   3.085   0.961  0.5218 -0.0588 -0.0697
   16ARG   HH11  244   3.807   3.176   1.001 -1.0158 -0.2019 -0.3801
   16ARG   HH12  245   3.872   3.074   0.872  0.2269 -0.9264 -0.1353
   16ARG    NH2  246   3.822   2.857   0.983 -0.9427 -0.2242 -0.5212
   16ARG   HH21  247   3.803   2.774   1.037  2.2336 -0.9450 -0.2952
   16ARG   HH22  248   3.854   2.846   0.888 -0.4555 -2.0369 -0.1797
   16ARG      C  249   3.976   3.383   1.477 -0.1057  0.0590 -0.0612
   16ARG      O  250   3.909   3.326   1.564 -0.1432 -0.4996 -0.2966
   17PRO      N  251   4.010   3.511   1.485 -0.0710 -0.5575  1.1827
   17PRO     CD  252   4.085   3.588   1.379 -0.2455 -0.1692  0.1588
   17PRO    HD1  253   4.049   3.564   1.279  1.7670 -0.2138 -0.6110
   17PRO    HD2  254   4.191   3.564   1.376 -0.4526 -1.1708  0.2521
   17PRO     CG  255   4.063   3.734   1.413 -0.1249  0.9200 -0.6020
   17PRO    HG1  256   3.967   3.751   1.364 -1.1379 -3.0061 -0.3160
   17PRO    HG2  257   4.145   3.798   1.379  1.5891 -0.9194 -0.1189
   17PRO     CB  258   4.055   3.727   1.570 -0.6931 -0.1968  0.2024
   17PRO    HB1  259   4.002   3.814   1.607  0.8823  0.4789  0.9416
   17PRO    HB2  260   4.157   3.722   1.608 -0.6197  0.6736  0.1260
   17PRO     CA  261   3.978   3.603   1.596  0.7835 -0.1902 -0.6687
   17PRO     HA  262   4.016   3.557   1.687  0.5138 -1.6517 -1.2683
   17PRO      C  263   3.823   3.635   1.609 -0.3151 -0.1652 -0.1957
   17PRO      O  264   3.753   3.640   1.510 -0.1158 -0.7044 -0.0725
   18PRO      N  265   3.769   3.657   1.729 -0.0397 -0.2912 -0.4956
   18PRO     CD  266   3.843   3.671   1.853  0.2517  0.7966 -0.1433
   18PRO    HD1  267   3.937   3.724   1.838  0.4509  0.5457  0.1982
   18PRO    HD2  268   3.871   3.576   1.899 -2.9076 -0.4163 -0.4901
   18PRO     CG  269   3.747   3.740   1.942 -0.1531  0.1251  0.1214
   18PRO    HG1  270   3.760   3.846   1.920 -1.0362  0.4158  0.9411
   18PRO    HG2  271   3.769   3.734   2.049  2.2201  0.1114 -0.3217
   18PRO     CB  272   3.605   3.701   1.900  0.1757  0.0394  0.2511
   18PRO    HB1  273   3.529   3.776   1.922 -2.4375 -1.9335 -1.4388
   18PRO    HB2  274   3.581   3.610   1.956 -0.2873 -0.4043 -0.6409
   18PRO     CA  275   3.624   3.677   1.754  0.1801 -0.6839  0.2566
   18PRO     HA  276   3.568   3.587   1.726  0.1019 -0.2947 -0.8842
   18PRO      C  277   3.571   3.806   1.679 -0.0452 -0.0176  0.2324
   18PRO      O  278   3.644   3.906   1.679 -1.1905  0.6257 -0.4275
   19PRO      N  279   3.454   3.810   1.619 -0.1084  0.4405 -0.0325
   19PRO     CD  280   3.357   3.703   1.599  0.5991  0.0501  0.5589
   19PRO    HD1  281   3.319   3.682   1.699 -1.0234 -1.7500 -0.3781
   19PRO    HD2  282   3.405   3.614   1.558 -3.2300 -2.4244  0.9447
   19PRO     CG  283   3.245   3.757   1.512 -0.3090  0.0879 -0.2459
   19PRO    HG1  284   3.168   3.796   1.578  0.0749  1.2340 -0.4526
   19PRO    HG2  285   3.200   3.688   1.441 -0.0012 -0.4461  0.0693
   19PRO     CB  286   3.300   3.885   1.446  0.2012 -0.7012  0.0795
   19PRO    HB1  287   3.229   3.967   1.443 -0.0565 -0.6601  3.4104
   19PRO    HB2  288   3.334   3.863   1.345 -0.6595  1.5471 -0.7527
   19PRO     CA  289   3.413   3.930   1.542  0.2865  0.4442 -0.1608
   19PRO     HA  290   3.497   3.966   1.484  0.7929 -2.5925 -1.4836
   19PRO      C  291   3.356   4.044   1.621 -0.6465 -0.2920 -0.3082
   19PRO      O  292   3.298   4.020   1.727  0.4995 -0.5563  0.3968
   20SER      N  293   3.388   4.170   1.583 -0.2358  0.3632 -0.3532
   20SER      H  294   3.453   4.182   1.507  0.3202 -1.5445 -0.2202
   20SER     CA  295   3.356   4.290   1.663  0.4646 -0.2534  0.3035
   20SER     HA  296   3.321   4.258   1.761 -1.0477 -2.1461 -0.7778
   20SER     CB  297   3.473   4.387   1.674 -0.6020 -0.1081  0.6267
   20SER    HB1  298   3.448   4.481   1.724  1.8194  0.0171  1.7211
   20SER    HB2  299   3.514   4.398   1.574  0.2296 -2.3576  0.6614
   20SER     OG  300   3.573   4.330   1.765 -0.3544  0.3298  0.2124
   20SER     HG  301   3.605   4.397   1.825  0.3072  0.5578 -0.3819
   20SER      C  302   3.227   4.353   1.609  0.3109  0.2550  0.4927
   20SER    OC1  303   3.133   4.366   1.690  0.5260  0.1337 -0.2391
   20SER    OC2  304   3.228   4.384   1.488 -0.8409 -0.3883  0.3580
   21SOL     OW  305   2.799   2.766   2.748 -0.6897 -0.3148 -0.3293
   21SOL    HW1  306   2.714   2.790   2.786 -0.1668 -0.7495  1.1915
   21SOL    HW2  307   2.851   2.847   2.754 -0.4209 -0.5350  0.4689
   22SOL     OW  308   0.789   2.844   1.394 -0.2197 -0.2749 -0.1273
   22SOL    HW1  309   0.797   2.881   1.482 -0.2021  0.0965 -0.2837
   22SOL    HW2  310   0.867   2.790   1.383  0.2420  0.4016 -0.2530
   23SOL     OW  311   1.437   2.206   2.803 -0.6083  0.4470  0.6005
   23SOL    HW1  312   1.473   2.222   2.890  1.0103  1.6692 -0.2471
   23SOL    HW2  313   1.482   2.268   2.746 -1.6813 -0.2670 -1.1199
   24SOL     OW  314   0.388   0.622   0.376  0.1611  0.3305 -0.6693
   24SOL    HW1  315   0.403   0.688   0.443 -0.2438  0.5400 -0.7789
   24SOL    HW2  316   0.469   0.572   0.373 -0.2003 -0.3854  0.7403
   25SOL     OW  317   2.869   1.555   0.111 -0.0499 -0.0958 -0.1537
   25SOL    HW1  318   2.903   1.482   0.164 -0.5368  0.7824  1.4150
   25SOL    HW2  319   2.910   1.633   0.148  0.3348  0.4810 -1.7097
   26SOL     OW  320   1.338   2.001   1.677  0.0392  0.2409 -0.7544
   26SOL    HW1  321   1.408   1.941   1.700 -0.4590 -0.2057 -0.3696
   26SOL    HW2  322   1.264   1.945   1.653 -0.2241  0.6996 -1.0556
   27SOL     OW  323   4.355   4.165   2.926 -0.6803 -0.5041  0.2878
   27SOL    HW1  324   4.345   4.184   2.832 -0.9617 -0.3912  0.3383
   27SOL    HW2  325   4.415   4.091   2.929  0.6883  0.5528  0.0892
   28SOL     OW  326   1.327   0.993   0.918  0.3166 -0.1503  0.0372
   28SOL    HW1  327   1.367   1.076   0.943  0.9071 -0.0576 -1.1317
   28SOL    HW2  328   1.287   1.010   0.832 -1.7227 -0.4176  0.8631
   29SOL     OW  329   3.267   3.265   2.385 -0.0792 -0.2898  0.2399
   29SOL    HW1  330   3.291   3.200   2.451 -0.0036  0.7084  1.2330
   29SOL    HW2  331   3.350   3.303   2.358 -0.2160  0.5165  0.8840
   30SOL     OW  332   3.186   4.033   1.101 -0.6623  0.2656 -0.1866
   30SOL    HW1  333   3.202   4.110   1.155  1.7486 -0.2843 -0.0164
   30SOL    HW2  334   3.132   4.065   1.029 -1.1692  1.7191  0.7986
   31SOL     OW  335   0.915   4.244   1.862  0.6186 -0.3103  0.1146
   31SOL    HW1  336   0.910   4.289   1.946 -2.7222  3.2744 -1.7069
   31SOL    HW2  337   0.867   4.163   1.876 -2.9840  1.7826  1.0095
   32SOL     OW  338   2.203   0.057   0.034 -0.4951  0.6786  0.3328
   32SOL    HW1  339   2.212   0.149   0.009 -0.0768  0.6666  0.4424
   32SOL    HW2  340   2.110   0.037   0.017 -0.2309  0.6479 -1.3276
   33SOL     OW  341   1.470   1.983   0.525 -0.7507  0.1066  0.4758
   33SOL    HW1  342   1.521   1.926   0.468  0.3488  1.2140  0.3158
   33SOL    HW2  343   1.394   2.009   0.472  0.1716  0.9902 -0.4515
   34SOL     OW  344   0.965   3.897   2.162  0.4767 -0.2330  0.2293
   34SOL    HW1  345   1.041   3.950   2.186 -0.0802  0.2759  0.9065
   34SOL    HW2  346   0.983   3.811   2.201 -0.2301  0.4697  2.2128
   35SOL     OW  347   1.583   2.429   2.681 -0.1326 -0.9049 -0.0583
   35SOL    HW1  348   1.639   2.485   2.735 -0.7873 -1.0090  0.7591
   35SOL    HW2  349   1.627   2.424   2.597  0.1768  0.4687 -0.0006
   36SOL     OW  350   0.346   1.685   1.846 -0.2601 -0.0132 -0.1823
   36SOL    HW1  351   0.421   1.636   1.878  0.0949  1.4019  1.3049
   36SOL    HW2  352   0.313   1.634   1.772  2.0758 -0.7329 -0.8119
   37SOL     OW  353   1.597   1.326   0.056  0.3638 -0.0330 -0.0725
   37SOL    HW1  354   1.691   1.330   0.035  0.4992 -0.3106  0.4609
   37SOL    HW2  355   1.557   1.394   0.002  0.9740  0.5647  0.2157
   38SOL     OW  356   3.171   2.095   0.642  0.4740 -0.5980  0.5794
   38SOL    HW1  357   3.225   2.021   0.616  0.1285 -0.9883  0.9482
   38SOL    HW2  358   3.229   2.171   0.636  0.8991 -0.9311  0.4383
   39SOL     OW  359   2.121   0.626   2.760 -0.0362  0.0495 -0.3628
   39SOL    HW1  360   2.139   0.571   2.684 -0.5053 -1.0517  0.2865
   39SOL    HW2  361   2.186   0.598   2.826 -0.8667 -0.4153  0.2866
   40SOL     OW  362   0.424   0.296   1.391 -0.0373  0.0501  0.1708
   40SOL    HW1  363   0.503   0.349   1.375  0.7226 -0.7971  1.0598
   40SOL    HW2  364   0.375   0.303   1.309  1.0863  0.3795 -0.5042
   41SOL     OW  365   2.246   2.165   2.539  0.7554 -0.4887  0.1249
   41SOL    HW1  366   2.161   2.182   2.498  0.0983 -1.5993  0.9743
   41SOL    HW2  367   2.260   2.240   2.596  0.3553 -0.2837 -0.0394
   42SOL     OW  368   1.275   1.021   1.772 -0.3612 -0.3967 -0.0363
   42SOL    HW1  369   1.356   0.975   1.750 -0.0196  0.3660 -0.3967
   42SOL    HW2  370   1.265   1.086   1.703  0.5142  1.8011  1.8082
   43SOL     OW  371   2.222   3.098   2.245 -0.2839  0.1701 -0.0421
   43SOL    HW1  372   2.254   3.009   2.261 -0.1032  0.0196 -1.1162
   43SOL    HW2  373   2.206   3.134   2.332 -0.5906 -0.9957  0.4115
   44SOL     OW  374   3.656   1.302   0.594 -0.0481  0.0819 -0.1974
   44SOL    HW1  375   3.580   1.244   0.586 -0.2493  0.3782 -0.4493
   44SOL    HW2  376   3.693   1.304   0.505 -1.8989  2.8755 -1.0383
   45SOL     OW  377   1.258   1.490   0.352 -0.9411 -0.8560  0.0868
   45SOL    HW1  378   1.218   1.495   0.265 -0.3678 -0.2302 -0.1486
   45SOL    HW2  379   1.316   1.414   0.348  0.1810  0.0032 -0.5631
   46SOL     OW  380   2.372   1.533   1.781  0.0709  0.6038  0.2115
   46SOL    HW1  381   2.373   1.626   1.805  0.6988  1.5121 -2.8175
   46SOL    HW2  382   2.302   1.526   1.716  1.3206 -0.5507 -1.0942
   47SOL     OW  383   1.329   0.075   2.134 -0.1836  0.1024 -0.7548
   47SOL    HW1  384   1.423   0.075   2.154 -0.0886  0.4202 -1.1951
   47SOL    HW2  385   1.304   0.167   2.134 -0.3574  0.0613 -1.2604
   48SOL     OW  386   1.463   0.575   1.888  0.8710  0.2887  0.2619
   48SOL    HW1  387   1.439   0.484   1.908  1.0766  0.3705  0.9123
   48SOL    HW2  388   1.381   0.623   1.892  0.6937  0.0701 -0.4989
   49SOL     OW  389   4.043   0.199   1.552  0.0789 -0.1533  0.0064
   49SOL    HW1  390   4.106   0.243   1.609  0.9961 -0.1814 -0.9360
   49SOL    HW2  391   4.085   0.115   1.532  0.9604  0.8206 -2.6327
   50SOL     OW  392   1.221   2.535   1.957 -0.4718 -0.2165  0.3866
   50SOL    HW1  393   1.259   2.482   2.027 -0.2803 -1.2456 -0.4658
   50SOL    HW2  394   1.132   2.553   1.985 -0.6209 -1.2125  0.5947
   51SOL     OW  395   4.367   1.534   3.020 -0.1565  0.3234 -0.5521
   51SOL    HW1  396   4.286   1.486   3.038 -0.3422  0.6469 -0.4987
   51SOL    HW2  397   4.378   1.530   2.925 -0.5685  0.7943 -0.6254
   52SOL     OW  398   1.484   4.358   2.470 -0.5673  0.3231  0.0635
   52SOL    HW1  399   1.521   4.336   2.555 -0.5022 -0.1183 -0.0762
   52SOL    HW2  400   1.413   4.419   2.489 -0.9753 -0.2788  0.4851
   53SOL     OW  401   0.181   0.404   0.904 -0.5003 -0.1446  0.4811
   53SOL    HW1  402   0.226   0.449   0.833 -0.0711 -0.2746  0.6730
   53SOL    HW2  403   0.129   0.336   0.860 -1.8076  1.0411  0.0986
   54SOL     OW  404   2.999   0.814   2.371  0.7934 -0.3543 -0.2632
   54SOL    HW1  405   3.003   0.879   2.441 -1.6084  1.2091 -1.4127
   54SOL    HW2  406   3.047   0.738   2.405  1.3940  1.0266  2.2285
   55SOL     OW  407   0.639   0.062   1.162 -0.9171 -0.4728 -0.0001
   55SOL    HW1  408   0.578   0.067   1.236  0.2326  0.8332  0.9159
   55SOL    HW2  409   0.722   0.038   1.202 -1.0530 -3.8602 -1.4118
   56SOL     OW  410   2.847   3.923   0.308 -0.1528 -0.5109  0.1599
   56SOL    HW1  411   2.777   3.886   0.254 -0.4268 -2.3344  1.6625
   56SOL    HW2  412   2.925   3.917   0.252 -0.5617 -1.6833 -0.3231
   57SOL     OW  413   0.372   1.770   0.575 -0.0304 -0.1117 -0.6047
   57SOL    HW1  414   0.305   1.772   0.642 -0.2428  1.2791 -0.8242
   57SOL    HW2  415   0.355   1.690   0.526 -2.3783  0.8355 -1.4726
   58SOL     OW  416   1.397   1.261   0.448 -0.0261 -0.4727  0.2194
   58SOL    HW1  417   1.438   1.224   0.526  0.4778 -0.8993 -0.2412
   58SOL    HW2  418   1.344   1.189   0.412  0.0596 -0.4048 -0.0490
   59SOL     OW  419   3.634   0.740   1.234 -0.2486  0.4099  0.0692
   59SOL    HW1  420   3.709   0.757   1.291 -0.5027  2.3667 -0.1243
   59SOL    HW2  421   3.566   0.707   1.293 -0.3234  1.8659  0.8359
   60SOL     OW  422   2.678   1.183   1.340 -0.1634  0.1134 -0.1613
   60SOL    HW1  423   2.698   1.221   1.425  0.3658  0.1953 -0.3184
   60SOL    HW2  424   2.693   1.089   1.351 -1.7907 -0.1210  0.3202
   61SOL     OW  425   0.916   3.848   1.582 -0.1290  0.3390 -0.0221
   61SOL    HW1  426   0.827   3.815   1.597 -0.0386 -0.6222 -1.4490
   61SOL    HW2  427   0.952   3.860   1.670 -2.1472  2.1619  0.6460
   62SOL     OW  428   1.339   0.906   2.174  0.2929 -0.5285 -0.1329
   62SOL    HW1  429   1.358   0.964   2.247  1.5508  0.6461 -1.3165
   62SOL    HW2  430   1.388   0.944   2.100 -0.4639 -1.9723 -1.4414
   63SOL     OW  431   4.323   2.735   1.641  0.7634 -0.5691 -0.3331
   63SOL    HW1  432   4.285   2.651   1.666  0.1389 -0.1522  0.1604
   63SOL    HW2  433   4.356   2.722   1.552  0.4123 -1.2500 -0.3625
   64SOL     OW  434   2.412   1.894   2.178 -0.1880 -0.3068 -0.4300
   64SOL    HW1  435   2.376   1.940   2.255 -2.8395 -3.1842  0.2197
   64SOL    HW2  436   2.498   1.864   2.207 -0.4325  0.1293  0.8257
   65SOL     OW  437   2.114   2.487   2.477  0.0634  0.3361  0.1446
   65SOL    HW1  438   2.096   2.414   2.419 -0.1182 -0.5791  1.3136
   65SOL    HW2  439   2.050   2.479   2.548  1.3939  0.3458  1.4042
   66SOL     OW  440   0.189   1.352   0.392 -0.7671  0.1926  0.1024
   66SOL    HW1  441   0.236   1.435   0.389  1.5313 -1.0473 -2.5813
   66SOL    HW2  442   0.225   1.306   0.468  0.3569  0.3788 -0.3090
   67SOL     OW  443   0.857   1.102   0.765  0.4516  0.1618  0.2688
   67SOL    HW1  444   0.805   1.033   0.806 -0.5750  0.6320 -0.2136
   67SOL    HW2  445   0.809   1.125   0.686 -0.1999  2.6489  1.2937
   68SOL     OW  446   0.022   0.407   0.217  0.0566  0.1988 -0.4007
   68SOL    HW1  447   0.015   0.440   0.127 -0.7859 -1.9868 -1.2036
   68SOL    HW2  448   0.094   0.345   0.214  0.8701  1.0405  0.7932
   69SOL     OW  449   3.860   1.175   1.134  0.3024  0.4707  0.1634
   69SOL    HW1  450   3.810   1.150   1.057  0.2338  2.5368 -0.5388
   69SOL    HW2  451   3.795   1.186   1.204  0.2875 -0.7640  0.3546
   70SOL     OW  452   4.053   2.174   0.931 -0.0386 -0.1428 -0.4640
   70SOL    HW1  453   3.997   2.109   0.973 -0.0990 -0.4760 -1.0536
   70SOL    HW2  454   4.133   2.127   0.909  0.1370  0.1194 -0.4009
   71SOL     OW  455   0.500   3.611   1.001  0.0793 -0.0800 -0.2428
   71SOL    HW1  456   0.463   3.600   0.914 -1.6090 -0.1072  0.4322
   71SOL    HW2  457   0.582   3.562   0.999 -0.4506 -0.9680 -1.4886
   72SOL     OW  458   0.723   1.586   0.349  0.3353 -0.4008  0.2888
   72SOL    HW1  459   0.672   1.588   0.268  0.3118 -1.4092  0.2705
   72SOL    HW2  460   0.814   1.582   0.320  0.2836 -2.1877  0.2722
   73SOL     OW  461   0.118   0.735   0.881 -0.4245  0.0567  0.7116
   73SOL    HW1  462   0.111   0.645   0.912 -0.3050 -0.4880 -0.7851
   73SOL    HW2  463   0.045   0.780   0.924 -3.1108 -1.6948 -1.6423
   74SOL     OW  464   2.671   0.099   1.010 -0.2734 -0.1848  0.4210
   74SOL    HW1  465   2.607   0.117   0.941  0.0442  0.9422  0.3990
   74SOL    HW2  466   2.756   0.111   0.967 -0.0461 -0.8300  0.6705
   75SOL     OW  467   3.915   3.313   2.938 -0.2452 -0.6230  0.0655
   75SOL    HW1  468   3.934   3.275   3.024  0.2849 -1.3272 -0.3578
   75SOL    HW2  469   3.983   3.279   2.881  0.7578  1.5887 -0.1806
   76SOL     OW  470   2.608   1.745   1.801 -0.4759  0.0353  0.0518
   76SOL    HW1  471   2.598   1.667   1.746 -1.0188  0.1862 -0.0746
   76SOL    HW2  472   2.518   1.771   1.821 -0.2923 -0.0619  1.0695
   77SOL     OW  473   1.556   1.164   0.966 -0.0129 -0.9568  0.2555
   77SOL    HW1  474   1.580   1.239   0.912 -1.5338 -1.5813 -1.3706
   77SOL    HW2  475   1.570   1.194   1.056 -0.0771  1.0778 -0.3701
   78SOL     OW  476   1.046   2.698   0.264 -0.6215 -0.3518 -0.5707
   78SOL    HW1  477   1.091   2.783   0.253 -1.9042  0.3331 -0.6757
   78SOL    HW2  478   1.061   2.653   0.180 -0.0649 -0.1674 -0.5741
   79SOL     OW  479   2.900   2.941   0.274 -0.2918  0.2554  0.8389
   79SOL    HW1  480   2.905   3.034   0.253 -0.5399  0.1186  0.1570
   79SOL    HW2  481   2.988   2.907   0.256 -0.5319  0.1149 -0.1376
   80SOL     OW  482   0.587   4.128   2.989 -0.0278 -0.5016 -0.6099
   80SOL    HW1  483   0.622   4.050   2.947  0.4177 -0.7023  0.1173
   80SOL    HW2  484   0.558   4.098   3.075 -1.3573 -0.1909 -0.9297
   81SOL     OW  485   2.835   4.007   2.773  0.1064  0.0626  0.1216
   81SOL    HW1  486   2.892   3.942   2.732  0.9928 -1.4212  3.4002
   81SOL    HW2  487   2.894   4.076   2.802  0.0252 -0.4748  1.6670
   82SOL     OW  488   1.315   3.672   0.110 -0.6393  0.2526 -0.0532
   82SOL    HW1  489   1.349   3.744   0.162 -1.5846  0.6337  0.0631
   82SOL    HW2  490   1.251   3.629   0.167  0.2601 -0.9894  0.0554
   83SOL     OW  491   0.785   1.527   1.761  0.5586 -0.0810 -0.2505
   83SOL    HW1  492   0.849   1.593   1.786 -0.6725  0.9125  0.3836
   83SOL    HW2  493   0.712   1.577   1.724 -0.3030 -1.0869  0.0346
   84SOL     OW  494   1.700   4.330   2.885 -0.1023 -0.2808 -0.4023
   84SOL    HW1  495   1.679   4.277   2.962  1.5039 -0.5121 -0.0899
   84SOL    HW2  496   1.637   4.403   2.889 -1.1730 -1.1998  0.1470
   85SOL     OW  497   1.027   0.325   0.166  0.3250  0.7012  0.1467
   85SOL    HW1  498   1.075   0.298   0.088  1.0337 -0.9078  1.0866
   85SOL    HW2  499   1.095   0.336   0.233 -0.4518 -0.2802  1.1459
   86SOL     OW  500   0.875   1.375   0.811 -0.0693 -0.1260  0.1949
   86SOL    HW1  501   0.828   1.296   0.838  1.0274 -1.0307 -0.4340
   86SOL    HW2  502   0.819   1.415   0.744 -1.1328  0.2398  1.2572
   87SOL     OW  503   0.520   0.055   2.478  0.3637  0.1880 -0.3187
   87SOL    HW1  504   0.614   0.049   2.458  0.1279  1.8371 -2.2192
   87SOL    HW2  505   0.513   0.129   2.538  0.2410  0.2975 -0.4678
   88SOL     OW  506   3.441   0.407   1.227  0.3935  0.0796 -0.1416
   88SOL    HW1  507   3.413   0.463   1.300 -1.8389 -0.9632 -0.1215
   88SOL    HW2  508   3.411   0.320   1.252  3.1180 -1.0673 -0.5213
   89SOL     OW  509   1.239   0.157   2.499 -0.1807  0.1550  0.2861
   89SOL    HW1  510   1.288   0.234   2.528 -0.5941 -0.2764  2.3391
   89SOL    HW2  511   1.178   0.189   2.433 -0.1154  1.5187  0.8684
   90SOL     OW  512   1.116   1.953   0.867 -0.1598 -0.0556  0.1044
   90SOL    HW1  513   1.065   1.894   0.811  1.0319  1.2174 -2.5235
   90SOL    HW2  514   1.207   1.928   0.851  0.4736  2.9825 -1.9326
   91SOL     OW  515   0.271   0.194   2.228  0.1584 -0.4836  0.8461
   91SOL    HW1  516   0.270   0.253   2.153 -0.1840  0.5747  1.6554
   91SOL    HW2  517   0.364   0.190   2.254  0.4745 -1.8797 -0.3875
   92SOL     OW  518   1.677   0.523   2.638  0.7183 -0.7769  0.1648
   92SOL    HW1  519   1.624   0.600   2.653  1.4670 -0.3324  0.6018
   92SOL    HW2  520   1.737   0.520   2.712  2.9474  0.1396 -1.4626
   93SOL     OW  521   0.667   3.644   0.015  0.3034 -0.0697  0.3135
   93SOL    HW1  522   0.576   3.621   0.037 -0.0558 -0.2081 -1.1796
   93SOL    HW2  523   0.662   3.736  -0.014  0.0282 -0.9226 -2.6954
   94SOL     OW  524   2.750   0.990   2.167 -0.0113 -0.2944  0.4448
   94SOL    HW1  525   2.695   0.924   2.208  0.1260  0.4334  1.8572
   94SOL    HW2  526   2.688   1.054   2.132 -0.1434 -1.1190 -0.9073
   95SOL     OW  527   3.955   0.490   1.586  0.0333 -0.1947  0.3201
   95SOL    HW1  528   4.044   0.470   1.613  0.0705  0.5680  0.8044
   95SOL    HW2  529   3.941   0.439   1.507  0.5123 -1.1856  0.8606
   96SOL     OW  530   3.136   4.199   0.341  0.2673  0.6041 -0.4459
   96SOL    HW1  531   3.183   4.172   0.262 -1.7942  0.7437 -1.8146
   96SOL    HW2  532   3.092   4.120   0.372  0.8715  0.6047  0.4504
   97SOL     OW  533   0.655   3.793   1.623 -0.7558  0.3542 -0.2056
   97SOL    HW1  534   0.618   3.715   1.664 -1.3137  0.8329  0.2104
   97SOL    HW2  535   0.616   3.866   1.670 -1.2196  0.9156 -1.4245
   98SOL     OW  536   0.202   0.699   1.972  0.6221 -0.1382 -0.2221
   98SOL    HW1  537   0.201   0.642   1.895 -0.1965  0.5345 -0.7290
   98SOL    HW2  538   0.292   0.730   1.979  0.8951 -0.8788 -0.3980
   99SOL     OW  539   2.966   0.092   2.708  0.3588  0.0505  0.3374
   99SOL    HW1  540   2.962   0.159   2.777  0.2819 -0.6331  1.0095
   99SOL    HW2  541   2.889   0.038   2.722  0.9716 -0.8074  0.4666
  100SOL     OW  542   0.071   0.899   0.166 -0.5317 -0.3052 -0.0452
  100SOL    HW1  543   0.162   0.928   0.169 -0.1776 -1.2422 -0.9633
  100SOL    HW2  544   0.043   0.916   0.076 -1.7267  1.2631  0.5972
  101SOL     OW  545   3.802   4.148   2.921 -0.0563  0.1359  0.7953
  101SOL    HW1  546   3.810   4.075   2.981 -1.6117  0.6233  1.6693
  101SOL    HW2  547   3.892   4.177   2.905  0.5149 -1.3707  1.1338
  102SOL     OW  548   0.863   1.090   0.185 -0.3782  0.0829  0.5059
  102SOL    HW1  549   0.859   0.995   0.175 -0.4372  0.1438 -0.1444
  102SOL    HW2  550   0.935   1.105   0.246  1.2353 -0.2964 -1.1890
  103SOL     OW  551   4.328   3.980   1.275  0.8043 -0.1020  0.2801
  103SOL    HW1  552   4.330   3.987   1.179 -0.6960 -0.1856  0.2307
  103SOL    HW2  553   4.394   3.913   1.295 -0.5137 -1.8393 -0.8892
  104SOL     OW  554   0.186   2.465   1.055  0.5009  0.1091 -0.3712
  104SOL    HW1  555   0.139   2.422   0.984  1.2624  0.2035 -0.9435
  104SOL    HW2  556   0.270   2.420   1.060  0.3849 -0.0234  0.6040
  105SOL     OW  557   2.934   0.247   0.114 -0.5766 -0.0233 -0.0820
  105SOL    HW1  558   2.966   0.320   0.062 -0.2166  0.0698  0.2663
  105SOL    HW2  559   2.906   0.287   0.197  0.8844 -0.4360  0.6428
  106SOL     OW  560   0.646   2.373   2.306 -0.5882  0.0051  0.7617
  106SOL    HW1  561   0.587   2.411   2.371  0.1853 -0.8914  2.0371
  106SOL    HW2  562   0.605   2.290   2.282 -2.3911  1.5609 -2.1848
  107SOL     OW  563   4.267   4.330   2.412  0.3946 -0.5272 -0.3921
  107SOL    HW1  564   4.250   4.262   2.346  0.8064 -0.5716 -0.4571
  107SOL    HW2  565   4.199   4.396   2.396 -0.5256 -1.2974  0.2088
  108SOL     OW  566   2.945   0.166   0.877  0.7371  0.2406  0.0478
  108SOL    HW1  567   3.008   0.171   0.949  0.2932 -0.8175  0.5401
  108SOL    HW2  568   2.998   0.144   0.801  1.3111  2.1100 -0.1353
  109SOL     OW  569   1.199   3.175   2.314  0.1637 -0.2811  0.3630
  109SOL    HW1  570   1.226   3.183   2.223 -0.8430  2.2101  0.1994
  109SOL    HW2  571   1.106   3.197   2.314  0.5566  1.7049  2.1871
  110SOL     OW  572   1.259   1.879   2.579  0.1759  0.4176  0.2120
  110SOL    HW1  573   1.236   1.805   2.635 -0.6788  0.1755 -0.4316
  110SOL    HW2  574   1.207   1.951   2.613 -1.6996 -0.1414 -1.2738
  111SOL     OW  575   2.923   0.443   0.809  0.3015  0.3629 -0.3050
  111SOL    HW1  576   2.984   0.466   0.879 -0.4755 -1.0670  0.8998
  111SOL    HW2  577   2.913   0.348   0.817 -1.7449  0.5087 -0.7106
  112SOL     OW  578   3.653   3.133   2.790  0.4129 -0.0731  0.0006
  112SOL    HW1  579   3.667   3.158   2.881 -0.3386  0.1370  0.0694
  112SOL    HW2  580   3.560   3.153   2.774  0.3581 -0.7641 -0.5968
  113SOL     OW  581   0.495   0.030   0.577 -0.4609 -0.7263  0.5448
  113SOL    HW1  582   0.481   0.117   0.540 -0.1744 -1.2272 -0.7752
  113SOL    HW2  583   0.499   0.045   0.672 -2.5592  0.3959  0.5180
  114SOL     OW  584   2.763   0.267   1.558  0.0460  0.0574  0.3509
  114SOL    HW1  585   2.819   0.289   1.633  0.1888  0.5234  0.1071
  114SOL    HW2  586   2.797   0.183   1.527 -0.1052 -0.2150  0.8956
  115SOL     OW  587   4.384   0.926   1.340  0.3755 -0.3756  0.1986
  115SOL    HW1  588   4.301   0.900   1.300 -0.8703 -0.2794  2.5537
  115SOL    HW2  589   4.368   0.921   1.434  1.8733  3.2297  0.8033
  116SOL     OW  590   1.978   1.016   0.567 -0.1417 -0.4122 -0.4595
  116SOL    HW1  591   1.994   0.922   0.570  0.1346 -0.3472  1.3091
  116SOL    HW2  592   2.060   1.055   0.599 -0.6188  0.3858 -0.1787
  117SOL     OW  593   3.646   1.545   2.945 -0.3357 -0.2369  0.0280
  117SOL    HW1  594   3.593   1.567   3.022  0.9888 -1.5288  1.3657
  117SOL    HW2  595   3.615   1.458   2.919 -0.5242  0.0398 -0.7065
  118SOL     OW  596   0.626   4.168   1.231 -0.5120 -0.0947 -0.0509
  118SOL    HW1  597   0.689   4.218   1.178 -0.1111  0.9312  1.3493
  118SOL    HW2  598   0.635   4.078   1.199  1.1651  0.1477 -0.3617
  119SOL     OW  599   0.314   3.011   2.529  0.0464  0.3342 -0.2231
  119SOL    HW1  600   0.335   3.051   2.614 -0.7599  0.7901 -0.2321
  119SOL    HW2  601   0.254   3.072   2.488  0.2786  0.0137 -1.0509
  120SOL     OW  602   3.649   1.897   2.698 -0.4734 -0.1206 -0.6369
  120SOL    HW1  603   3.597   1.965   2.653  0.1497  0.6053 -0.2843
  120SOL    HW2  604   3.719   1.946   2.741 -0.7956 -0.8507  0.7535
  121SOL     OW  605   3.009   1.997   1.017  0.5677  0.5918 -0.2297
  121SOL    HW1  606   2.950   1.983   1.091 -0.2579  1.1853 -0.7605
  121SOL    HW2  607   3.002   2.090   0.998  0.2108  0.3270 -1.5126
  122SOL     OW  608   0.916   0.277   0.580  0.1048 -0.0023  0.5145
  122SOL    HW1  609   0.952   0.190   0.566 -0.4322 -0.1982  0.2985
  122SOL    HW2  610   0.972   0.335   0.530 -0.0516 -0.3360 -0.0507
  123SOL     OW  611   1.254   4.307   2.850  0.1704  0.6831  0.1025
  123SOL    HW1  612   1.201   4.383   2.827  1.4006  1.0649 -1.7517
  123SOL    HW2  613   1.193   4.245   2.890 -1.7337  1.0086 -2.0973
  124SOL     OW  614   0.931   2.111   0.394  0.7481 -0.1854  0.2532
  124SOL    HW1  615   0.961   2.087   0.482 -0.2656  0.8315  0.8911
  124SOL    HW2  616   0.906   2.028   0.354 -0.7250 -0.4553  1.6663
  125SOL     OW  617   1.492   3.687   2.651 -0.4404  0.0363  0.1990
  125SOL    HW1  618   1.499   3.765   2.596  2.6701  0.3156  0.8232
  125SOL    HW2  619   1.496   3.721   2.740  1.6859 -0.7959  0.4808
  126SOL     OW  620   0.138   1.712   0.164  0.5527  0.2290  0.4944
  126SOL    HW1  621   0.098   1.639   0.118  1.0204  0.8185 -0.9121
  126SOL    HW2  622   0.189   1.758   0.097  0.3276  1.8024  1.3499
  127SOL     OW  623   1.735   4.396   0.182 -0.4999  0.6498 -0.1598
  127SOL    HW1  624   1.660   4.440   0.143 -1.0824  1.7097  1.9597
  127SOL    HW2  625   1.702   4.309   0.205 -0.2349  0.1260 -1.6884
  128SOL     OW  626   0.137   0.591   0.479 -0.2665  0.3660  0.6113
  128SOL    HW1  627   0.200   0.615   0.410 -0.3193  0.1678  0.4937
  128SOL    HW2  628   0.052   0.617   0.443 -0.2755  0.4282  0.6775
  129SOL     OW  629   2.494   3.628   0.916  0.1774 -0.0462  0.6245
  129SOL    HW1  630   2.415   3.574   0.912 -0.4840  0.8096 -4.2539
  129SOL    HW2  631   2.565   3.569   0.892 -0.0707  0.4218 -1.4638
  130SOL     OW  632   3.341   0.600   0.344  0.0494 -0.0262 -0.0878
  130SOL    HW1  633   3.359   0.548   0.423 -3.6598 -0.7837  0.4413
  130SOL    HW2  634   3.296   0.539   0.285 -0.0342  1.3709 -1.5236
  131SOL     OW  635   2.247   4.030   2.325  0.1831 -0.2559 -0.7336
  131SOL    HW1  636   2.270   3.953   2.377 -0.4304 -0.6518 -1.0321
  131SOL    HW2  637   2.246   3.998   2.235  0.5550  0.2606 -0.9237
  132SOL     OW  638   3.231   1.553   1.228 -0.0882 -0.0039  0.4756
  132SOL    HW1  639   3.187   1.514   1.153 -0.0082 -0.3920  0.6284
  132SOL    HW2  640   3.205   1.645   1.226 -1.0015 -0.2442  0.6260
  133SOL     OW  641   0.800   0.436   2.372  0.3932 -0.7385 -0.5021
  133SOL    HW1  642   0.734   0.503   2.387 -0.2164 -1.2125 -1.0056
  133SOL    HW2  643   0.843   0.462   2.290  1.5617  0.1302  0.3456
  134SOL     OW  644   2.954   3.628   0.892  0.3293  0.0608  0.4560
  134SOL    HW1  645   2.994   3.614   0.978 -0.3095 -0.6501  0.6469
  134SOL    HW2  646   2.925   3.719   0.893 -2.2327 -0.6722  2.1133
  135SOL     OW  647   2.231   3.958   0.794  0.0715  0.3066  0.0848
  135SOL    HW1  648   2.313   3.925   0.757 -0.5654 -1.2816  0.0238
  135SOL    HW2  649   2.183   3.994   0.720 -0.3038 -0.9647 -0.3093
  136SOL     OW  650   1.592   2.024   2.316  0.0990 -0.3809 -0.1290
  136SOL    HW1  651   1.584   2.025   2.412  0.8052 -0.0595 -0.0670
  136SOL    HW2  652   1.502   2.022   2.285 -0.1384 -0.6303  0.5439
  137SOL     OW  653   0.587   0.619   2.405  0.3437  0.1358  0.0313
  137SOL    HW1  654   0.518   0.661   2.354  0.9555  0.8538 -0.2271
  137SOL    HW2  655   0.541   0.556   2.460 -0.3939 -0.1936 -0.9401
  138SOL     OW  656   1.323   4.121   0.748 -0.7482  0.1784 -0.8591
  138SOL    HW1  657   1.289   4.164   0.827 -0.0190 -1.5904  0.4954
  138SOL    HW2  658   1.409   4.161   0.734 -0.8198  0.3998 -0.6769
  139SOL     OW  659   1.462   1.172   2.823  0.2050 -0.5137  0.5235
  139SOL    HW1  660   1.549   1.136   2.841  0.0521 -0.5960  1.1323
  139SOL    HW2  661   1.416   1.164   2.907 -0.1028  0.3350  0.4392
  140SOL     OW  662   1.511   1.874   0.147  0.3031 -0.4281  0.7566
  140SOL    HW1  663   1.455   1.831   0.211 -1.3762  1.0686  0.3507
  140SOL    HW2  664   1.451   1.917   0.086  1.8659 -0.6677 -1.0629
  141SOL     OW  665   1.023   0.104   0.346  0.0333 -0.3946  0.0814
  141SOL    HW1  666   0.937   0.083   0.380 -0.8139  4.4041  1.7635
  141SOL    HW2  667   1.012   0.107   0.251 -1.3154 -0.9397  0.2050
  142SOL     OW  668   3.115   1.987   2.876  0.0275  0.3384  0.4626
  142SOL    HW1  669   3.147   2.073   2.850  0.8059 -0.1177 -0.1446
  142SOL    HW2  670   3.036   1.974   2.824  0.3743  0.3392 -0.0721
  143SOL     OW  671   0.591   2.760   0.990  0.1503 -0.3139 -0.3032
  143SOL    HW1  672   0.584   2.726   1.079  4.2009  0.8087  0.6423
  143SOL    HW2  673   0.598   2.855   1.001 -0.7187 -0.0118 -1.9950
  144SOL     OW  674   0.742   3.128   0.109 -0.2232  0.1194 -0.1075
  144SOL    HW1  675   0.667   3.180   0.081 -0.6097 -0.6871 -0.6430
  144SOL    HW2  676   0.801   3.190   0.151  0.3248  1.4394 -2.5917
  145SOL     OW  677   2.810   2.223   2.679  0.2252  0.2308 -0.0163
  145SOL    HW1  678   2.814   2.315   2.707  1.7808  0.8103 -1.8909
  145SOL    HW2  679   2.834   2.225   2.586  0.1949 -2.0697 -0.1355
  146SOL     OW  680   1.278   2.431   0.245 -0.2548  0.4423  0.5243
  146SOL    HW1  681   1.240   2.414   0.159  1.2395  0.5343 -0.1795
  146SOL    HW2  682   1.372   2.437   0.229  0.1193 -0.2046  2.2793
  147SOL     OW  683   2.251   2.743   3.049 -0.0499  0.1884 -0.5299
  147SOL    HW1  684   2.225   2.829   3.016  1.0637  0.8253  0.1760
  147SOL    HW2  685   2.331   2.760   3.099  1.5128 -1.5896 -2.2496
  148SOL     OW  686   0.951   4.268   0.593 -0.0431  0.4775 -0.2048
  148SOL    HW1  687   0.966   4.174   0.604  1.8689  0.6545 -0.7774
  148SOL    HW2  688   0.909   4.296   0.674  1.4168 -0.5206  0.9624
  149SOL     OW  689   3.400   2.837   2.235  0.1115  0.1203  0.3098
  149SOL    HW1  690   3.329   2.776   2.216 -0.5571  1.3340 -1.2493
  149SOL    HW2  691   3.475   2.803   2.186  0.0196  0.0167  0.2401
  150SOL     OW  692   0.345   3.312   0.814 -0.1376  0.4374 -0.1880
  150SOL    HW1  693   0.360   3.405   0.802 -0.9266  0.8023  1.4480
  150SOL    HW2  694   0.364   3.296   0.907  2.7206 -1.5809 -0.9772
  151SOL     OW  695   3.391   3.336   0.712 -0.2669  0.1717 -0.1922
  151SOL    HW1  696   3.473   3.317   0.757 -0.7195 -2.0631 -0.1834
  151SOL    HW2  697   3.327   3.280   0.755 -1.0950 -0.6719 -2.3596
  152SOL     OW  698   4.236   1.957   0.558  0.1103  0.3594  0.2502
  152SOL    HW1  699   4.227   2.044   0.519  0.6080  0.2785 -0.0528
  152SOL    HW2  700   4.282   1.906   0.491 -4.0702 -1.4488 -1.5686
  153SOL     OW  701   2.369   1.241   2.316 -0.6736 -0.3008  0.0896
  153SOL    HW1  702   2.446   1.256   2.261 -0.4575  0.5676  0.5967
  153SOL    HW2  703   2.362   1.146   2.323 -0.5642 -0.4210 -1.2229
  154SOL     OW  704   1.991   2.559   2.715 -0.3614 -0.1984  0.2918
  154SOL    HW1  705   1.902   2.545   2.748 -0.6887 -0.0122 -0.4860
  154SOL    HW2  706   2.015   2.646   2.745 -0.4008 -0.2818  0.5748
  155SOL     OW  707   3.251   3.017   2.789 -0.0043  0.1113 -0.0317
  155SOL    HW1  708   3.239   2.966   2.869 -1.8938  0.3751 -0.1052
  155SOL    HW2  709   3.276   3.104   2.819 -0.3342  0.1071  0.2574
  156SOL     OW  710   4.323   0.254   1.023 -0.1369 -0.1684 -0.9157
  156SOL    HW1  711   4.244   0.211   0.992 -0.9915  1.9782 -1.9466
  156SOL    HW2  712   4.387   0.240   0.952  0.0003 -0.7907 -0.6732
  157SOL     OW  713   1.642   0.897   1.206  0.9751  0.3109  0.1876
  157SOL    HW1  714   1.635   0.990   1.185  0.1422 -0.1927 -1.9157
  157SOL    HW2  715   1.644   0.852   1.122 -0.0066 -1.6914  1.1469
  158SOL     OW  716   3.546   2.675   0.275 -0.6125 -0.4171 -0.2211
  158SOL    HW1  717   3.599   2.740   0.321 -2.9295  1.4377  0.0364
  158SOL    HW2  718   3.585   2.591   0.298  2.5820  0.7954 -0.6125
  159SOL     OW  719   3.321   3.251   2.897 -0.4023 -0.3751  0.0790
  159SOL    HW1  720   3.246   3.301   2.930 -0.0263 -1.3044  2.5556
  159SOL    HW2  721   3.365   3.219   2.976  1.6451 -1.2762 -1.3476
  160SOL     OW  722   4.228   2.180   0.413  0.0713 -0.2750  0.0109
  160SOL    HW1  723   4.204   2.258   0.364  0.0314  1.5967  2.7903
  160SOL    HW2  724   4.316   2.158   0.383 -0.4613 -0.0708 -1.8179
  161SOL     OW  725   2.139   1.706   2.638 -0.3263 -0.1365 -0.0523
  161SOL    HW1  726   2.118   1.690   2.546  2.8128 -0.6562 -0.7918
  161SOL    HW2  727   2.104   1.793   2.655 -0.0454  0.4487 -2.1015
  162SOL     OW  728   1.063   3.992   1.011 -0.1908  0.3872  0.2663
  162SOL    HW1  729   1.027   3.903   1.011 -3.0382  1.3842 -1.6722
  162SOL    HW2  730   1.115   3.996   0.930 -2.1577  1.1312 -1.0278
  163SOL     OW  731   3.202   1.531   2.050  0.2161  0.0269 -0.2818
  163SOL    HW1  732   3.109   1.523   2.071 -0.3117  0.5843 -2.1525
  163SOL    HW2  733   3.235   1.595   2.112 -0.2850 -1.2211  1.3449
  164SOL     OW  734   2.968   3.012   2.722  0.2227 -0.0360 -0.3080
  164SOL    HW1  735   2.968   2.979   2.633  2.7531 -0.1099 -0.3441
  164SOL    HW2  736   3.060   3.025   2.743 -0.4120  3.0571  1.1700
  165SOL     OW  737   0.984   1.629   0.233 -0.2725  0.2900 -0.1889
  165SOL    HW1  738   1.071   1.651   0.266  1.0355 -2.9623 -1.0824
  165SOL    HW2  739   0.975   1.679   0.152 -0.1368  2.1615  0.8975
  166SOL     OW  740   1.754   1.867   1.556 -0.0801 -0.1322 -0.0375
  166SOL    HW1  741   1.753   1.842   1.464  1.4011  2.1780 -0.7872
  166SOL    HW2  742   1.730   1.788   1.604  1.6779 -2.1376 -2.2693
  167SOL     OW  743   0.326   1.273   2.083  0.0516  0.2551 -0.4494
  167SOL    HW1  744   0.248   1.259   2.136 -0.0914  1.6878 -0.2577
  167SOL    HW2  745   0.393   1.300   2.147  0.7624 -1.0633 -0.5918
  168SOL     OW  746   2.694   2.475   2.103  0.1090  0.6771 -0.2014
  168SOL    HW1  747   2.770   2.476   2.045  1.5733  0.1679  1.6147
  168SOL    HW2  748   2.664   2.384   2.101 -0.5888  0.9117 -1.0417
  169SOL     OW  749   0.614   0.032   2.062  0.4593  0.5075 -0.3559
  169SOL    HW1  750   0.547   0.099   2.054  0.4579  0.7343  1.3262
  169SOL    HW2  751   0.578  -0.043   2.015 -0.9989  0.6048  0.5595
  170SOL     OW  752   4.374   2.300   0.930  0.5553 -0.0738  0.2380
  170SOL    HW1  753   4.351   2.359   0.858  1.8481 -0.7500 -0.7636
  170SOL    HW2  754   4.298   2.304   0.989 -1.0361 -0.3434 -1.6959
  171SOL     OW  755   1.968   1.373   0.774 -0.2518  0.0130 -0.2336
  171SOL    HW1  756   2.032   1.302   0.775  1.2949  1.3547  0.5164
  171SOL    HW2  757   1.952   1.392   0.866 -2.0349 -0.5181 -0.4008
  172SOL     OW  758   1.038   0.781   0.968 -0.0528  0.8248 -0.1806
  172SOL    HW1  759   1.063   0.688   0.966  1.5600  0.8857  4.5042
  172SOL    HW2  760   1.081   0.818   0.890  1.6328 -1.8722 -0.7071
  173SOL     OW  761   3.555   1.679   1.119 -0.2260  0.1671 -0.0043
  173SOL    HW1  762   3.637   1.669   1.070  1.3711 -0.7045  2.6480
  173SOL    HW2  763   3.540   1.774   1.119  0.7477  0.3421 -0.5775
  174SOL     OW  764   2.597   2.339   1.317  0.0513 -0.3474 -0.1713
  174SOL    HW1  765   2.669   2.283   1.290  0.6941  1.4037 -2.3056
  174SOL    HW2  766   2.528   2.322   1.253 -0.8409 -0.7574  0.8613
  175SOL     OW  767   2.437   2.096   1.931  0.6604  0.3207 -0.2240
  175SOL    HW1  768   2.437   2.012   1.977  1.3729  0.7781  0.6472
  175SOL    HW2  769   2.374   2.085   1.861 -2.3986  0.3679  2.3167
  176SOL     OW  770   0.943   3.032   1.025 -0.0062 -0.0407  0.2714
  176SOL    HW1  771   0.938   3.108   1.083 -2.1645  0.2271 -0.1828
  176SOL    HW2  772   0.863   3.036   0.973  0.6253 -1.7236 -0.9273
  177SOL     OW  773   3.676   3.730   2.975 -0.0309 -0.2310 -0.1944
  177SOL    HW1  774   3.744   3.795   2.959 -0.1041 -0.7173 -3.0357
  177SOL    HW2  775   3.595   3.775   2.952 -0.6724  0.1142  2.4691
  178SOL     OW  776   0.880   3.280   0.760  0.2871  0.6337  0.4694
  178SOL    HW1  777   0.930   3.362   0.769 -0.2752  1.0096  0.2296
  178SOL    HW2  778   0.947   3.213   0.745  0.7831  0.9806  1.0602
  179SOL     OW  779   0.333   4.186   0.248  0.1710  0.3418  1.0562
  179SOL    HW1  780   0.428   4.179   0.246  0.1788  0.6371 -0.2202
  179SOL    HW2  781   0.310   4.228   0.165 -1.2767 -2.1115  0.1185
  180SOL     OW  782   0.239   1.945   1.947  0.0329 -0.3187  0.2026
  180SOL    HW1  783   0.282   1.886   1.886 -0.3028 -2.0635  1.5752
  180SOL    HW2  784   0.305   2.010   1.970  1.1959 -1.5661  0.4662
  181SOL     OW  785   0.530   0.820   1.704 -0.8530  0.3081  0.2283
  181SOL    HW1  786   0.622   0.832   1.684 -0.8432  1.0623  0.6887
  181SOL    HW2  787   0.486   0.824   1.619 -0.3363 -1.4707 -0.1453
  182SOL     OW  788   3.128   2.319   0.284  0.4119 -0.0133 -0.3951
  182SOL    HW1  789   3.180   2.358   0.354  1.3801 -0.2282 -0.9783
  182SOL    HW2  790   3.150   2.370   0.207  0.9053 -1.0390 -0.9524
  183SOL     OW  791   1.628   0.183   1.802 -0.2189 -0.4899 -0.4678
  183SOL    HW1  792   1.569   0.242   1.849 -1.9705 -1.4185 -1.4194
  183SOL    HW2  793   1.716   0.212   1.828 -1.0649  0.5698  1.4374
  184SOL     OW  794   1.303   2.334   2.101  0.3979  0.2295 -0.3987
  184SOL    HW1  795   1.246   2.270   2.144 -0.1932  0.3622 -0.9631
  184SOL    HW2  796   1.337   2.289   2.024  0.1687  0.5073 -0.6673
  185SOL     OW  797   2.741   2.475   1.633  0.0757 -0.1154 -0.3775
  185SOL    HW1  798   2.793   2.437   1.704 -2.0820  1.2494  2.1229
  185SOL    HW2  799   2.665   2.416   1.625  0.7188 -0.7376 -2.2353
  186SOL     OW  800   2.188   3.930   1.765 -0.0058 -0.4601  0.2439
  186SOL    HW1  801   2.149   3.848   1.795 -0.6849 -0.5628 -0.8557
  186SOL    HW2  802   2.116   3.978   1.725  1.1008 -1.1298 -2.8449
  187SOL     OW  803   4.282   0.593   0.374  0.3566  0.1135  0.2907
  187SOL    HW1  804   4.311   0.517   0.324  2.4524  1.2488 -0.3557
  187SOL    HW2  805   4.204   0.564   0.420 -0.5610 -1.5380 -2.1658
  188SOL     OW  806   0.364   1.532   2.441  0.4079  0.3751 -0.3187
  188SOL    HW1  807   0.322   1.574   2.516 -0.4490 -0.2506 -0.4362
  188SOL    HW2  808   0.451   1.571   2.437  0.1482  1.0512  0.4682
  189SOL     OW  809   3.598   1.855   1.354  0.1300  0.4723  0.3205
  189SOL    HW1  810   3.550   1.842   1.436 -0.1971  0.2457  0.0914
  189SOL    HW2  811   3.619   1.767   1.323  1.4206  0.5712  0.8355
  190SOL     OW  812   1.177   2.160   0.077  0.0865  0.8605 -0.2790
  190SOL    HW1  813   1.196   2.168   0.171  2.2942 -1.4882 -0.4268
  190SOL    HW2  814   1.229   2.229   0.036  2.8065 -0.9090 -0.0390
  191SOL     OW  815   0.855   3.579   0.871 -0.5738  0.4247 -0.0603
  191SOL    HW1  816   0.808   3.504   0.908  2.1773 -0.6700  1.4518
  191SOL    HW2  817   0.854   3.644   0.941  1.0436 -0.0505  0.4484
  192SOL     OW  818   0.717   3.091   1.660 -0.3171  0.1892  0.7654
  192SOL    HW1  819   0.767   3.142   1.724  1.0943  0.1492 -0.2511
  192SOL    HW2  820   0.743   3.127   1.575 -1.7166 -0.1319  0.1744
  193SOL     OW  821   4.209   0.627   0.699  0.4184 -0.0449  0.1153
  193SOL    HW1  822   4.220   0.722   0.693  1.3193 -0.0584  1.2950
  193SOL    HW2  823   4.146   0.606   0.629 -0.3557  1.5034  0.3062
  194SOL     OW  824   3.419   1.643   2.216  0.1669  0.1586  0.4952
  194SOL    HW1  825   3.424   1.575   2.283  1.4902  1.2288  1.5519
  194SOL    HW2  826   3.503   1.638   2.170 -0.5593 -0.2826 -0.8429
  195SOL     OW  827   1.584   0.361   2.059 -0.5290 -0.3272 -0.1879
  195SOL    HW1  828   1.607   0.454   2.067 -1.2693 -0.1006 -0.5773
  195SOL    HW2  829   1.498   0.355   2.098 -0.5427 -0.8269 -0.2932
  196SOL     OW  830   3.387   2.418   1.971  0.1686 -0.0892  0.0658
  196SOL    HW1  831   3.345   2.333   1.956 -1.0178  0.9907 -3.9961
  196SOL    HW2  832   3.465   2.416   1.916  0.6537  1.1355  0.6714
  197SOL     OW  833   4.161   0.789   1.205 -0.0409  0.3774  0.4365
  197SOL    HW1  834   4.089   0.846   1.233  0.8993  1.4399  0.7746
  197SOL    HW2  835   4.120   0.703   1.193 -1.5769  1.1730 -0.4074
  198SOL     OW  836   1.550   2.692   2.431  0.2274 -0.1916  0.4490
  198SOL    HW1  837   1.472   2.726   2.387  0.6100  0.2784  0.1232
  198SOL    HW2  838   1.533   2.599   2.442  0.5294 -0.5331 -1.5976
  199SOL     OW  839   2.583   1.396   1.160  0.2011  0.1549  0.2238
  199SOL    HW1  840   2.514   1.405   1.226  1.1780 -0.6280  1.3840
  199SOL    HW2  841   2.643   1.331   1.197  1.4611  0.6711 -0.8520
  200SOL     OW  842   0.455   4.183   1.435  0.0637  0.1259  0.7130
  200SOL    HW1  843   0.417   4.270   1.428 -2.0722 -0.8200 -1.2027
  200SOL    HW2  844   0.520   4.178   1.365 -1.7986 -0.6075 -1.0723
  201SOL     OW  845   3.442   2.362   1.290  0.2060  0.3664  0.1247
  201SOL    HW1  846   3.435   2.413   1.371  1.3210 -0.0947  0.5386
  201SOL    HW2  847   3.416   2.274   1.315  2.3792 -0.2327  0.5087
  202SOL     OW  848   1.622   3.976   0.480  0.2669  0.0595  0.1180
  202SOL    HW1  849   1.654   4.040   0.417  1.0223  0.2149  0.6402
  202SOL    HW2  850   1.665   4.000   0.562 -1.8735  0.8349  1.1099
  203SOL     OW  851   0.580   2.385   1.288  0.2943 -0.3250 -0.0249
  203SOL    HW1  852   0.661   2.364   1.243  1.3850  1.4315  0.9717
  203SOL    HW2  853   0.606   2.397   1.380 -1.0408  0.5112  0.2778
  204SOL     OW  854   3.292   0.395   3.104 -0.1365 -0.2160 -0.5235
  204SOL    HW1  855   3.326   0.388   3.014 -1.9583  1.0563 -1.3851
  204SOL    HW2  856   3.207   0.350   3.101  0.2354 -1.0698  0.8665
  205SOL     OW  857   3.855   4.350   1.602  0.1962 -0.7574  0.7779
  205SOL    HW1  858   3.873   4.428   1.654  1.5603 -0.8870  0.5339
  205SOL    HW2  859   3.931   4.341   1.544 -1.6015 -0.1536 -1.8344
  206SOL     OW  860   1.796   2.777   2.369  0.3782 -0.4994  0.2275
  206SOL    HW1  861   1.826   2.793   2.459  1.4327 -1.2539  0.0319
  206SOL    HW2  862   1.709   2.740   2.379  0.4220 -0.4205  0.9373
  207SOL     OW  863   1.879   1.137   1.867 -0.1495  0.1282 -0.1213
  207SOL    HW1  864   1.876   1.043   1.887 -0.1991  0.5156  1.8898
  207SOL    HW2  865   1.937   1.143   1.791 -1.2512 -1.6387 -1.1904
  208SOL     OW  866   3.594   2.191   2.289  0.0281  0.0549  0.0852
  208SOL    HW1  867   3.685   2.212   2.311 -0.5135  0.7176  1.8824
  208SOL    HW2  868   3.591   2.096   2.284  0.6975  0.0036  0.6164
  209SOL     OW  869   3.619   3.319   0.025 -0.4390 -0.0597 -0.1833
  209SOL    HW1  870   3.688   3.260  -0.005  0.4653  0.7526  0.2728
  209SOL    HW2  871   3.584   3.276   0.103  0.5805  0.2486  0.4611
  210SOL     OW  872   0.413   1.701   0.996  0.0814  0.2325  0.4865
  210SOL    HW1  873   0.502   1.711   1.031  0.5817  0.2897 -0.7294
  210SOL    HW2  874   0.424   1.640   0.923 -0.9501 -0.0456  0.5536
  211SOL     OW  875   1.118   1.826   1.640 -0.3676 -0.4835 -0.0579
  211SOL    HW1  876   1.175   1.762   1.682  1.5333  0.4029 -1.1475
  211SOL    HW2  877   1.065   1.774   1.579 -0.0496 -1.2210  0.2834
  212SOL     OW  878   1.515   0.121   0.393 -0.4640 -0.1135 -0.0602
  212SOL    HW1  879   1.475   0.035   0.382 -1.3133 -0.0362  1.9508
  212SOL    HW2  880   1.609   0.103   0.395 -0.6316 -1.0320  0.4439
  213SOL     OW  881   2.000   2.893   2.690  0.8845 -0.1340 -0.3558
  213SOL    HW1  882   1.935   2.952   2.729 -1.3759 -1.8449 -1.3071
  213SOL    HW2  883   2.001   2.917   2.597  1.9953  0.1764 -0.2740
  214SOL     OW  884   1.727   0.346   0.674  0.1477  0.0743 -0.0830
  214SOL    HW1  885   1.700   0.266   0.719 -0.1369  0.1019 -0.2021
  214SOL    HW2  886   1.820   0.355   0.695  0.4354 -0.8442 -0.9021
  215SOL     OW  887   0.407   2.330   1.095 -0.4851 -0.3761 -0.1675
  215SOL    HW1  888   0.456   2.356   1.174 -1.2981 -0.3435  0.3385
  215SOL    HW2  889   0.348   2.261   1.125 -1.3603  0.1848 -0.5743
  216SOL     OW  890   3.056   0.438   2.616  0.4395  0.0105 -0.2242
  216SOL    HW1  891   3.096   0.493   2.548 -0.2733  0.9934  0.1390
  216SOL    HW2  892   3.040   0.354   2.572 -0.8736  0.9137 -1.5652
  217SOL     OW  893   1.406   3.245   0.845  0.2004 -0.0079 -0.1663
  217SOL    HW1  894   1.312   3.242   0.829  0.2823 -1.4479 -0.4863
  217SOL    HW2  895   1.442   3.286   0.767 -0.3188  2.5927  0.8684
  218SOL     OW  896   0.497   2.979   0.783  0.3158 -0.1205  0.0159
  218SOL    HW1  897   0.443   3.038   0.732 -0.2172 -0.4678  0.1677
  218SOL    HW2  898   0.521   2.909   0.722  1.0198  0.2951 -0.1878
  219SOL     OW  899   0.861   1.016   2.255  0.2931 -0.0653 -0.1469
  219SOL    HW1  900   0.924   1.061   2.197  0.7547  0.0559  0.4329
  219SOL    HW2  901   0.799   1.085   2.280  1.9261  0.7516  2.0544
  220SOL     OW  902   3.406   0.618   0.990  0.3399 -0.1178 -0.6302
  220SOL    HW1  903   3.414   0.548   1.055 -0.8854 -0.3135 -0.6620
  220SOL    HW2  904   3.495   0.631   0.958  0.6084 -1.6539 -0.6001
  221SOL     OW  905   4.265   1.657   1.225  0.0947  0.2093 -0.3360
  221SOL    HW1  906   4.260   1.752   1.217 -0.2490  0.2775  0.5084
  221SOL    HW2  907   4.313   1.643   1.307 -1.2632 -0.3214  0.3917
  222SOL     OW  908   1.616   1.293   1.181  0.0448  0.2623 -0.1013
  222SOL    HW1  909   1.610   1.384   1.211  0.0531  0.4097 -0.5319
  222SOL    HW2  910   1.664   1.248   1.250 -0.9939  0.3205  0.6781
  223SOL     OW  911   3.339   4.302   0.541 -0.0663 -0.3201  0.7563
  223SOL    HW1  912   3.341   4.397   0.552  0.8251 -0.1604 -0.5345
  223SOL    HW2  913   3.287   4.288   0.462  1.8110 -0.7054 -0.4819
  224SOL     OW  914   1.756   2.812   1.301  0.0513 -0.1389 -0.3040
  224SOL    HW1  915   1.702   2.747   1.345  0.9661  0.0716  1.2062
  224SOL    HW2  916   1.784   2.769   1.220  0.5375 -1.5967  0.6007
  225SOL     OW  917   2.229   0.395   1.391  0.2641  0.2241  0.1170
  225SOL    HW1  918   2.321   0.381   1.368 -0.1411 -2.4019 -0.1608
  225SOL    HW2  919   2.231   0.423   1.482  1.3491  0.3647  0.0623
  226SOL     OW  920   0.874   0.554   2.783  0.3013  0.2790 -0.4073
  226SOL    HW1  921   0.831   0.623   2.732 -3.4837 -1.6884 -0.2254
  226SOL    HW2  922   0.906   0.492   2.717 -1.1837 -0.3931 -0.5304
  227SOL     OW  923   1.566   3.153   2.323  0.2354  0.7920  0.1184
  227SOL    HW1  924   1.502   3.081   2.323 -0.6903  1.5311 -2.1084
  227SOL    HW2  925   1.644   3.114   2.283 -0.2259  0.9309 -0.9761
  228SOL     OW  926   0.784   1.857   0.403  0.3559 -0.0125 -0.0615
  228SOL    HW1  927   0.711   1.914   0.382  0.4803  0.8830  1.8061
  228SOL    HW2  928   0.752   1.769   0.382 -0.6507  0.5053 -0.8022
  229SOL     OW  929   3.210   0.514   2.397  0.1287 -0.3916  0.0709
  229SOL    HW1  930   3.298   0.475   2.407 -0.5412 -1.6002  2.0013
  229SOL    HW2  931   3.179   0.481   2.313  1.6032  0.2486 -0.7653
  230SOL     OW  932   0.174   0.072   3.092  0.4424 -0.4169 -0.2288
  230SOL    HW1  933   0.201   0.055   3.182  1.0799  1.0566 -0.1148
  230SOL    HW2  934   0.227   0.013   3.039  1.4435  0.0366  0.2485
  231SOL     OW  935   0.973   3.212   1.246 -1.0703 -0.4633 -0.3756
  231SOL    HW1  936   0.975   3.308   1.244 -0.0252 -0.4780 -0.6442
  231SOL    HW2  937   1.053   3.188   1.292 -1.2474 -1.2103 -0.4532
  232SOL     OW  938   1.548   1.469   0.548  0.6071 -0.2331  0.0447
  232SOL    HW1  939   1.623   1.499   0.498  1.6091 -1.8290  0.5000
  232SOL    HW2  940   1.506   1.403   0.492 -0.4161  0.5717 -0.1654
  233SOL     OW  941   4.085   0.477   0.510 -0.6895 -0.1242 -0.1302
  233SOL    HW1  942   3.994   0.447   0.523 -0.1965 -0.9384  1.7687
  233SOL    HW2  943   4.129   0.402   0.470 -0.8354  0.2921 -1.1063
  234SOL     OW  944   3.387   1.184   1.774  0.0937  0.2998 -0.5588
  234SOL    HW1  945   3.399   1.226   1.689  0.1948  0.1100 -0.6374
  234SOL    HW2  946   3.367   1.093   1.753 -3.0622  0.8535 -0.5300
  235SOL     OW  947   1.033   3.466   0.483  0.2752 -0.4778 -0.4953
  235SOL    HW1  948   1.092   3.455   0.557 -0.4576 -1.4989 -0.0402
  235SOL    HW2  949   0.968   3.529   0.512  1.1497  0.7211 -1.0300
  236SOL     OW  950   0.870   3.036   2.685 -0.5154  0.2473  0.1219
  236SOL    HW1  951   0.822   2.987   2.752 -0.5704 -1.0776 -0.8351
  236SOL    HW2  952   0.803   3.083   2.636 -0.7132 -0.4519 -0.2983
  237SOL     OW  953   2.357   0.795   0.563  0.1062  0.1130 -0.0711
  237SOL    HW1  954   2.444   0.759   0.578 -0.3126 -1.4819 -1.1647
  237SOL    HW2  955   2.373   0.885   0.534  1.2302  0.6670  2.0516
  238SOL     OW  956   1.961   3.822   2.191  0.3397  0.4577 -0.0881
  238SOL    HW1  957   1.959   3.734   2.154  0.3976  1.2832 -2.2085
  238SOL    HW2  958   1.870   3.840   2.215 -0.3050  0.9247 -2.5930
  239SOL     OW  959   2.378   0.091   2.346  0.6194 -0.1017 -0.1482
  239SOL    HW1  960   2.355   0.099   2.254 -1.7513 -1.6917  0.2139
  239SOL    HW2  961   2.461   0.044   2.347  0.6149 -0.1572 -1.4528
  240SOL     OW  962   3.301   0.134   2.709  0.3402  0.6089 -0.2430
  240SOL    HW1  963   3.217   0.111   2.747 -0.7440  1.5079 -1.9377
  240SOL    HW2  964   3.306   0.229   2.718  0.2562  0.7986 -1.8273
  241SOL     OW  965   4.196   1.186   2.838 -0.1945  0.4088 -0.2049
  241SOL    HW1  966   4.233   1.158   2.754 -0.5518 -2.0105  0.3904
  241SOL    HW2  967   4.101   1.181   2.825 -0.2975  1.7396 -0.1542
  242SOL     OW  968   1.745   2.143   2.861 -0.0799  0.1175 -0.4063
  242SOL    HW1  969   1.774   2.176   2.776  2.9935  0.7749  0.7530
  242SOL    HW2  970   1.722   2.222   2.911  0.2164 -0.0699  0.0373
  243SOL     OW  971   2.397   4.335   0.176  0.5372 -0.2992  0.0568
  243SOL    HW1  972   2.450   4.409   0.205 -0.2273  0.1867  0.2206
  243SOL    HW2  973   2.325   4.374   0.128 -1.3793 -0.7069  2.4205
  244SOL     OW  974   3.509   3.597   0.687  0.0345  0.5857 -0.4650
  244SOL    HW1  975   3.445   3.587   0.757  2.0058 -0.5324  1.2863
  244SOL    HW2  976   3.544   3.686   0.699 -0.2792  0.7322 -0.6258
  245SOL     OW  977   2.113   1.211   0.258 -0.8111 -0.1985 -0.2305
  245SOL    HW1  978   2.169   1.221   0.335  0.3183 -0.4792 -0.9911
  245SOL    HW2  979   2.174   1.205   0.185 -1.8590 -0.1673 -1.1290
  246SOL     OW  980   0.619   0.216   2.690 -0.4000  0.1636 -0.0521
  246SOL    HW1  981   0.714   0.220   2.674 -0.5352 -0.7994 -1.1937
  246SOL    HW2  982   0.609   0.144   2.752 -0.1746  1.9273  2.1527
  247SOL     OW  983   1.564   0.380   0.466  0.2378  0.2626  0.1879
  247SOL    HW1  984   1.626   0.364   0.537 -1.4670  0.2388  1.7600
  247SOL    HW2  985   1.536   0.293   0.438 -0.3933  0.2911  0.7130
  248SOL     OW  986   0.333   2.271   0.717 -0.3936  0.2571 -0.4316
  248SOL    HW1  987   0.296   2.352   0.752 -0.6032  0.7398 -1.7184
  248SOL    HW2  988   0.421   2.267   0.754  0.1013  1.7613 -1.3791
  249SOL     OW  989   2.305   2.225   0.953 -0.3901 -0.1055 -0.1678
  249SOL    HW1  990   2.348   2.162   1.011  1.1283 -0.2222 -1.3537
  249SOL    HW2  991   2.268   2.291   1.013 -0.7385 -1.3248  1.0171
  250SOL     OW  992   1.541   4.036   0.035 -0.0155 -0.3991  0.1396
  250SOL    HW1  993   1.491   4.107   0.076 -0.3836 -1.0834  0.9236
  250SOL    HW2  994   1.623   4.033   0.084 -0.0082 -0.5177  0.1210
  251SOL     OW  995   3.602   3.994   0.992 -0.7570  0.6540  0.2078
  251SOL    HW1  996   3.521   3.943   1.000 -0.6176  0.5335  0.9970
  251SOL    HW2  997   3.662   3.953   1.055 -0.1874  0.9392 -0.1411
  252SOL     OW  998   3.644   2.360   2.534 -0.4102 -0.6057  0.1257
  252SOL    HW1  999   3.666   2.277   2.493  0.5849 -0.1386 -0.3326
  252SOL    HW2 1000   3.724   2.387   2.579 -0.7186  0.1012  0.2784
  253SOL     OW 1001   2.145   2.598   1.575  0.2671 -0.2503  0.4276
  253SOL    HW1 1002   2.133   2.598   1.670 -1.4691  1.7356  0.2693
  253SOL    HW2 1003   2.059   2.617   1.540  0.3834 -3.0727 -1.7108
  254SOL     OW 1004   4.368   4.089   1.022  0.1396 -0.2483 -0.5002
  254SOL    HW1 1005   4.436   4.071   0.957 -0.4479  1.4366 -1.6355
  254SOL    HW2 1006   4.310   4.152   0.980  0.1755  1.5570  1.9518
  255SOL     OW 1007   0.463   0.565   1.800 -0.0118 -0.5263  0.1594
  255SOL    HW1 1008   0.486   0.650   1.762  0.3708 -1.2022 -1.1590
  255SOL    HW2 1009   0.375   0.547   1.766  0.1430 -0.9236 -0.0322
  256SOL     OW 1010   3.382   1.877   1.940 -0.3519  0.1067 -0.2126
  256SOL    HW1 1011   3.309   1.871   2.002  0.0013 -0.5525  0.1569
  256SOL    HW2 1012   3.402   1.786   1.919  1.0849  0.2223  0.5547
  257SOL     OW 1013   1.090   1.306   2.440  0.2322 -0.2506 -0.5272
  257SOL    HW1 1014   1.047   1.388   2.464 -1.2866 -1.1909  0.0903
  257SOL    HW2 1015   1.149   1.287   2.513 -0.5839 -0.4891  0.0892
  258SOL     OW 1016   1.446   3.468   0.491  0.1525  0.0231 -0.8572
  258SOL    HW1 1017   1.432   3.538   0.428 -0.9232  0.0857 -0.5680
  258SOL    HW2 1018   1.462   3.390   0.438 -0.1288  0.2010 -1.2041
  259SOL     OW 1019   0.192   1.301   2.906  0.0818  0.0692  0.5777
  259SOL    HW1 1020   0.142   1.236   2.956  1.2653  0.2591  2.0697
  259SOL    HW2 1021   0.131   1.374   2.895 -0.4750 -0.3194  1.0080
  260SOL     OW 1022   2.735   2.321   0.933 -0.1475 -0.1032 -0.2299
  260SOL    HW1 1023   2.694   2.300   0.849  0.1014  0.2881 -0.4525
  260SOL    HW2 1024   2.713   2.413   0.948 -0.2246 -0.1828  0.1571
  261SOL     OW 1025   2.094   2.978   0.087 -0.0505 -0.1422  0.5431
  261SOL    HW1 1026   2.106   3.017   0.000 -0.1498  0.9625  0.9977
  261SOL    HW2 1027   2.179   2.938   0.107  0.3090  0.4888  0.3454
  262SOL     OW 1028   2.250   1.163   2.820  0.3882  0.5057  0.6708
  262SOL    HW1 1029   2.297   1.102   2.763 -0.2882  1.5305 -1.0551
  262SOL    HW2 1030   2.191   1.107   2.870  0.4525 -0.3702 -0.1815
  263SOL     OW 1031   0.314   2.523   2.677 -0.4450 -0.3978  0.3337
  263SOL    HW1 1032   0.249   2.551   2.612 -0.0646 -1.4639 -0.5459
  263SOL    HW2 1033   0.282   2.557   2.760 -0.7054  1.4144 -0.4651
  264SOL     OW 1034   0.081   0.575   2.162  0.4641  0.2521 -0.2399
  264SOL    HW1 1035   0.132   0.629   2.101 -0.6843  1.6763  0.0066
  264SOL    HW2 1036  -0.010   0.588   2.136  0.0271 -0.0409  1.0467
  265SOL     OW 1037   0.429   2.636   0.748 -0.2544 -0.1430  0.7472
  265SOL    HW1 1038   0.466   2.697   0.684 -2.1011  0.9331  0.6347
  265SOL    HW2 1039   0.460   2.669   0.833  2.6110 -1.8620  0.4975
  266SOL     OW 1040   1.325   1.460   1.525  0.5194 -0.1357 -0.1747
  266SOL    HW1 1041   1.255   1.468   1.461  1.0443 -1.8324 -1.0430
  266SOL    HW2 1042   1.401   1.500   1.482  0.2202  1.2752  0.5719
  267SOL     OW 1043   2.680   2.067   3.047  0.0067 -0.3108  0.1198
  267SOL    HW1 1044   2.688   2.153   3.007  1.9626 -0.1571  0.7455
  267SOL    HW2 1045   2.590   2.063   3.078 -1.2675  0.0272 -3.1152
  268SOL     OW 1046   2.056   2.256   2.338  0.4618 -0.2038  0.2615
  268SOL    HW1 1047   1.981   2.203   2.364  1.2592 -1.2471  0.4924
  268SOL    HW2 1048   2.079   2.225   2.251 -0.6492  1.5670 -0.7105
  269SOL     OW 1049   3.000   2.261   0.965  0.0870  0.6145  0.3155
  269SOL    HW1 1050   3.083   2.295   0.997  0.0441  1.2679 -0.2368
  269SOL    HW2 1051   2.941   2.337   0.967 -0.4720  0.1760  0.6304
  270SOL     OW 1052   3.374   3.270   1.125 -0.0666  0.3129 -0.1765
  270SOL    HW1 1053   3.299   3.218   1.093 -1.4735  2.5490 -0.7335
  270SOL    HW2 1054   3.445   3.248   1.065 -0.6949 -0.7482 -0.5629
  271SOL     OW 1055   4.219   0.929   2.394 -0.1292  0.3370  0.5252
  271SOL    HW1 1056   4.211   0.885   2.309  2.2698  0.7797 -0.0057
  271SOL    HW2 1057   4.212   1.022   2.373  0.4521  0.4483  0.8063
  272SOL     OW 1058   1.297   0.031   0.664  0.0167  0.0809 -0.4486
  272SOL    HW1 1059   1.292  -0.064   0.656 -0.9333  0.0653  0.1844
  272SOL    HW2 1060   1.356   0.059   0.594 -0.3544 -0.8925 -1.1488
  273SOL     OW 1061   1.592   2.928   1.816 -0.1400  0.2601 -0.3888
  273SOL    HW1 1062   1.553   2.888   1.738  0.6901 -0.9005 -0.2441
  273SOL    HW2 1063   1.536   2.902   1.888  0.3699 -0.6289 -0.3028
  274SOL     OW 1064   1.510   1.758   2.841 -0.5809  0.6351 -0.4927
  274SOL    HW1 1065   1.461   1.682   2.871 -2.5642  1.6435 -1.0206
  274SOL    HW2 1066   1.519   1.744   2.747  0.4860  0.2965 -0.3524
  275SOL     OW 1067   2.044   1.709   1.010  0.2376 -0.7462 -0.0440
  275SOL    HW1 1068   2.064   1.758   0.930  1.0301 -1.0697 -0.0555
  275SOL    HW2 1069   2.086   1.624   0.997 -0.3954 -1.1251  0.3409
  276SOL     OW 1070   1.942   1.597   0.628 -0.0696 -0.1421  0.5551
  276SOL    HW1 1071   2.012   1.637   0.679  2.2737 -1.3222 -1.4855
  276SOL    HW2 1072   1.936   1.507   0.661 -0.6197 -0.0501  0.7123
  277SOL     OW 1073   3.700   3.377   0.989  0.0662  0.1925 -0.3092
  277SOL    HW1 1074   3.656   3.461   1.000  2.4691  1.9484 -2.8076
  277SOL    HW2 1075   3.706   3.365   0.894  2.7917 -1.0390 -0.0853
  278SOL     OW 1076   1.725   1.650   1.759 -0.1548  0.5508  0.1553
  278SOL    HW1 1077   1.770   1.667   1.842  1.5618  1.7680 -0.9357
  278SOL    HW2 1078   1.767   1.571   1.725 -1.3568 -0.3609  0.7557
  279SOL     OW 1079   2.611   3.525   0.143 -0.0652  0.1912 -0.3440
  279SOL    HW1 1080   2.640   3.437   0.118 -1.7728 -0.2804 -0.8734
  279SOL    HW2 1081   2.531   3.510   0.194 -0.1707  1.4274 -0.1173
  280SOL     OW 1082   0.672   3.405   0.977 -0.0901 -0.3121  0.1133
  280SOL    HW1 1083   0.600   3.394   1.040 -1.1525 -0.0374 -1.0205
  280SOL    HW2 1084   0.702   3.315   0.960 -0.1585 -0.4307  0.6034
  281SOL     OW 1085   3.414   1.244   1.517 -0.4630  0.4507 -0.0236
  281SOL    HW1 1086   3.509   1.239   1.506 -0.6038  0.1991 -1.2512
  281SOL    HW2 1087   3.394   1.337   1.505 -0.3584  0.5330  0.4176
  282SOL     OW 1088   0.576   1.888   0.142 -0.0826  0.4768  0.4644
  282SOL    HW1 1089   0.562   1.930   0.226  0.1857 -0.4618  0.9989
  282SOL    HW2 1090   0.583   1.960   0.079  0.8409  1.2241  1.4045
  283SOL     OW 1091   1.320   0.767   0.148  0.0883 -0.3474  0.6013
  283SOL    HW1 1092   1.348   0.709   0.077  0.4015 -0.3938  0.7588
  283SOL    HW2 1093   1.273   0.710   0.209 -0.3989 -0.2590  0.3096
  284SOL     OW 1094   1.321   3.260   0.265  0.2631  0.2733 -0.2550
  284SOL    HW1 1095   1.266   3.338   0.257  0.6090  0.7430  1.5331
  284SOL    HW2 1096   1.371   3.257   0.183  0.5664  2.1868 -0.1811
  285SOL     OW 1097   1.525   4.187   1.651 -0.4408  0.0974  0.2212
  285SOL    HW1 1098   1.539   4.275   1.617  1.1553  0.6323  2.1181
  285SOL    HW2 1099   1.527   4.196   1.746  1.8494 -2.2228  0.5154
  286SOL     OW 1100   1.497   2.502   0.724 -0.4399 -0.5661 -0.1248
  286SOL    HW1 1101   1.484   2.597   0.725 -0.9706 -0.6381  0.7992
  286SOL    HW2 1102   1.428   2.469   0.666 -0.3415 -0.4015 -0.3384
  287SOL     OW 1103   1.027   2.499   1.123 -0.9558  0.0904  0.2584
  287SOL    HW1 1104   1.027   2.555   1.200  1.9055 -0.3311  0.6774
  287SOL    HW2 1105   1.039   2.559   1.049  0.9010  0.1888  0.5991
  288SOL     OW 1106   1.012   2.565   2.691  0.6510  0.1451 -0.2258
  288SOL    HW1 1107   1.006   2.501   2.620 -1.1267  0.6490 -0.5760
  288SOL    HW2 1108   0.968   2.642   2.657 -0.9637  0.1431  1.7029
  289SOL     OW 1109   0.792   2.344   1.129 -0.5172 -0.4601  0.5010
  289SOL    HW1 1110   0.759   2.394   1.055 -0.4316  0.7759  1.2565
  289SOL    HW2 1111   0.886   2.363   1.131  0.2374 -3.3591 -1.1896
  290SOL     OW 1112   0.138   3.667   1.901  0.0750  0.5342 -0.5761
  290SOL    HW1 1113   0.205   3.645   1.965  0.1569  1.2619 -0.4031
  290SOL    HW2 1114   0.173   3.636   1.817  0.5874  0.8219 -0.4724
  291SOL     OW 1115   1.006   2.150   2.578 -0.0553  0.3559  0.0421
  291SOL    HW1 1116   1.002   2.235   2.534  2.2455  0.0784 -0.8159
  291SOL    HW2 1117   1.085   2.154   2.632 -0.5569 -0.8317  0.9074
  292SOL     OW 1118   0.984   1.508   3.047 -0.2539  0.2215 -0.2371
  292SOL    HW1 1119   0.915   1.453   3.084 -0.0888 -0.9806 -1.6174
  292SOL    HW2 1120   0.938   1.569   2.989 -0.3007  0.5750  0.1663
  293SOL     OW 1121   1.176   3.491   0.252 -0.1945 -0.0825 -0.2123
  293SOL    HW1 1122   1.120   3.473   0.177 -0.8098 -0.2413  0.2800
  293SOL    HW2 1123   1.118   3.488   0.327  0.1037  1.6514  0.1434
  294SOL     OW 1124   2.520   3.967   0.378  0.0641  0.3631 -0.1977
  294SOL    HW1 1125   2.543   3.893   0.321 -2.0931  1.0697 -2.1377
  294SOL    HW2 1126   2.479   4.031   0.320 -1.2557  1.6284  1.9729
  295SOL     OW 1127   0.964   1.684   1.869  0.1014 -0.6401  0.1619
  295SOL    HW1 1128   0.979   1.778   1.885 -1.3911 -0.6945  2.3120
  295SOL    HW2 1129   1.047   1.652   1.836  1.0064  1.2273  0.4787
  296SOL     OW 1130   0.721   1.488   0.607  0.1293 -0.6966 -0.9901
  296SOL    HW1 1131   0.722   1.503   0.513  1.2272  1.3453 -0.7115
  296SOL    HW2 1132   0.702   1.573   0.645  3.1550 -0.6158  0.7063
  297SOL     OW 1133   3.513   1.745   1.608  0.1921 -0.2305  0.1228
  297SOL    HW1 1134   3.570   1.668   1.612  1.4967  0.6517 -0.6934
  297SOL    HW2 1135   3.432   1.717   1.649  1.0466 -1.6816  0.8921
  298SOL     OW 1136   3.749   3.500   2.821  0.6249 -0.7347  0.1894
  298SOL    HW1 1137   3.788   3.430   2.873 -1.9626 -2.6985 -0.2821
  298SOL    HW2 1138   3.715   3.562   2.886 -0.1092 -1.7273  0.7809
  299SOL     OW 1139   3.096   3.885   0.194 -0.5531  0.1730 -0.4496
  299SOL    HW1 1140   3.132   3.874   0.106  1.3136  1.1149  0.1259
  299SOL    HW2 1141   3.156   3.947   0.236 -0.6745 -1.2030  1.8984
  300SOL     OW 1142   3.970   0.056   2.023  0.1360  0.0698 -0.3420
  300SOL    HW1 1143   3.934   0.134   2.065 -0.5556 -1.0598  1.2890
  300SOL    HW2 1144   3.944   0.064   1.931 -0.0058  1.6838 -0.1956
  301SOL     OW 1145   1.770   3.674   1.353  0.1209 -0.2889  0.6250
  301SOL    HW1 1146   1.686   3.712   1.326 -0.4126 -1.8013  0.0498
  301SOL    HW2 1147   1.787   3.713   1.439 -2.0250 -1.1590  1.5333
  302SOL     OW 1148   3.770   4.173   0.897 -0.0478  0.0331  0.5546
  302SOL    HW1 1149   3.714   4.110   0.941 -0.9819 -0.5961 -1.4076
  302SOL    HW2 1150   3.848   4.122   0.872 -1.0792 -0.6443 -1.6074
  303SOL     OW 1151   2.739   2.057   0.247  0.8791  0.2518  0.5074
  303SOL    HW1 1152   2.767   2.035   0.336 -3.1105  0.1013  1.9206
  303SOL    HW2 1153   2.702   2.145   0.254 -0.3132 -0.1095 -0.7384
  304SOL     OW 1154   3.158   3.154   0.754  0.5864  0.6835 -0.0724
  304SOL    HW1 1155   3.134   3.245   0.773 -0.9079  0.2018  0.5186
  304SOL    HW2 1156   3.173   3.114   0.840  1.7420  0.4806 -0.3492
  305SOL     OW 1157   3.117   3.828   0.689  0.2771  0.0699  0.3823
  305SOL    HW1 1158   3.042   3.846   0.631 -1.4020 -2.0865  1.6934
  305SOL    HW2 1159   3.077   3.811   0.774  2.4375  0.2849  1.5012
  306SOL     OW 1160   2.458   2.280   2.366  0.4661  0.2076  0.4203
  306SOL    HW1 1161   2.499   2.329   2.436  1.6514 -0.5020  0.2572
  306SOL    HW2 1162   2.375   2.249   2.403  0.8253  0.2959  1.3214
  307SOL     OW 1163   2.132   2.620   0.347  0.1972  0.3797  0.0012
  307SOL    HW1 1164   2.078   2.573   0.411 -0.0622 -1.5427 -1.5202
  307SOL    HW2 1165   2.106   2.712   0.356 -1.8070 -0.2161  0.7571
  308SOL     OW 1166   2.302   0.793   1.955 -0.3991 -0.1347  0.1266
  308SOL    HW1 1167   2.390   0.799   1.992 -0.7262 -0.6250  1.0015
  308SOL    HW2 1168   2.305   0.716   1.898 -0.3204 -0.2762  0.3214
  309SOL     OW 1169   0.898   2.198   1.909  0.1947  0.2048  0.6878
  309SOL    HW1 1170   0.844   2.257   1.960 -0.8264  0.1300 -0.2470
  309SOL    HW2 1171   0.974   2.250   1.883 -0.1358  0.7659  0.8282
  310SOL     OW 1172   3.886   4.027   0.282  0.1463  0.3901 -1.1692
  310SOL    HW1 1173   3.942   4.104   0.280  0.0019  0.6182  0.9783
  310SOL    HW2 1174   3.829   4.040   0.358  0.0553 -1.7769 -0.7760
  311SOL     OW 1175   3.969   2.191   2.139  0.1256  0.2200 -0.2361
  311SOL    HW1 1176   3.900   2.130   2.114 -1.2692  0.3395  2.8350
  311SOL    HW2 1177   4.048   2.138   2.147 -0.8144 -1.0224  1.2699
  312SOL     OW 1178   1.529   2.003   2.579  0.6533 -1.0058 -0.1528
  312SOL    HW1 1179   1.515   2.081   2.633  0.7831 -0.9899 -0.1428
  312SOL    HW2 1180   1.447   1.954   2.587 -0.0698 -0.0591 -1.4970
  313SOL     OW 1181   0.396   0.865   1.402  0.0657 -0.2219  0.2044
  313SOL    HW1 1182   0.473   0.914   1.372 -0.1976  0.0202 -0.0798
  313SOL    HW2 1183   0.335   0.870   1.329 -0.3068 -0.2269  0.5159
  314SOL     OW 1184   0.460   0.426   2.612  0.7675 -0.4161 -0.1259
  314SOL    HW1 1185   0.509   0.348   2.638  0.5002 -0.8293 -0.8300
  314SOL    HW2 1186   0.382   0.391   2.568 -0.8794  0.1645  2.1336
  315SOL     OW 1187   0.546   3.115   1.979  0.6925  0.0847  0.0538
  315SOL    HW1 1188   0.625   3.169   1.986  0.5982  0.5801 -2.1019
  315SOL    HW2 1189   0.552   3.056   2.054  2.5788  0.7959  0.5424
  316SOL     OW 1190   1.837   2.257   0.523 -0.9522 -0.0507  0.4154
  316SOL    HW1 1191   1.743   2.250   0.540 -0.7860  0.5028  1.5949
  316SOL    HW2 1192   1.863   2.168   0.500 -1.5449 -0.4431  1.2159
  317SOL     OW 1193   0.320   3.111   2.768 -0.0204 -0.3765  0.0402
  317SOL    HW1 1194   0.319   3.100   2.863  0.2271  0.1584  0.1062
  317SOL    HW2 1195   0.324   3.205   2.754 -3.6404 -0.1885 -0.5405
  318SOL     OW 1196   2.910   0.291   2.885  0.2673 -0.6773 -0.5446
  318SOL    HW1 1197   2.818   0.313   2.897  0.2963  1.3216 -3.0742
  318SOL    HW2 1198   2.944   0.361   2.829  2.7634 -2.5582 -1.5812
  319SOL     OW 1199   1.343   2.027   2.215 -0.2362 -0.9380 -0.2046
  319SOL    HW1 1200   1.320   2.047   2.124 -1.0592 -0.5700  0.0735
  319SOL    HW2 1201   1.285   1.954   2.239  1.1739 -2.1929 -0.4988
  320SOL     OW 1202   0.918   1.398   1.567 -0.3213 -0.2307 -0.3916
  320SOL    HW1 1203   0.871   1.449   1.633 -1.5523 -1.1929 -0.4873
  320SOL    HW2 1204   0.960   1.327   1.617  2.6311  1.5877 -0.0357
  321SOL     OW 1205   0.447   3.305   1.096  0.1378 -0.6883 -0.0781
  321SOL    HW1 1206   0.415   3.219   1.124 -0.8357 -0.0731  0.7772
  321SOL    HW2 1207   0.383   3.367   1.132  1.9202  0.5626  1.0602
  322SOL     OW 1208   1.748   4.080   0.240 -0.7137 -0.0241  0.6204
  322SOL    HW1 1209   1.815   4.112   0.300 -0.0662 -2.6053  1.4365
  322SOL    HW2 1210   1.795   4.061   0.159 -0.8597  0.0991  0.5074
  323SOL     OW 1211   2.089   1.385   1.290 -0.5935  0.1785  0.4549
  323SOL    HW1 1212   2.166   1.423   1.246 -0.4851  1.5158  1.7052
  323SOL    HW2 1213   2.023   1.379   1.222 -0.0776  1.1512 -0.1560
  324SOL     OW 1214   1.723   3.667   0.348 -0.0054  0.2027  0.5568
  324SOL    HW1 1215   1.755   3.731   0.411 -0.6275  0.4660  0.6099
  324SOL    HW2 1216   1.652   3.711   0.302  0.7811  0.1924 -0.6939
  325SOL     OW 1217   0.404   0.217   1.940 -0.4720  0.3890 -0.0896
  325SOL    HW1 1218   0.414   0.203   1.846  0.6369  1.1289 -0.0989
  325SOL    HW2 1219   0.372   0.307   1.948 -2.3124 -0.2385  0.1902
  326SOL     OW 1220   2.973   1.119   1.009  0.2094  0.4700 -0.4890
  326SOL    HW1 1221   3.067   1.104   1.019 -0.2282 -1.6879  1.1647
  326SOL    HW2 1222   2.946   1.158   1.092 -0.3825  0.9347 -0.8918
  327SOL     OW 1223   0.290   1.953   1.052  0.1007 -0.7012  0.0574
  327SOL    HW1 1224   0.252   1.992   0.973  0.4570 -0.8210 -0.1727
  327SOL    HW2 1225   0.343   1.881   1.020 -1.7711 -2.3868  0.5789
  328SOL     OW 1226   3.028   1.780   2.515 -0.6623 -0.0572  0.2981
  328SOL    HW1 1227   2.994   1.855   2.466 -1.3262 -1.6862 -1.9193
  328SOL    HW2 1228   3.123   1.789   2.510 -0.7372  0.7018  0.1636
  329SOL     OW 1229   2.310   3.409   0.907 -0.1383  0.0301  0.1122
  329SOL    HW1 1230   2.309   3.316   0.928  0.1576 -0.1278 -0.5588
  329SOL    HW2 1231   2.221   3.438   0.925 -0.4008 -0.5222 -0.2485
  330SOL     OW 1232   2.039   0.596   0.981  0.1186  0.8058 -0.0981
  330SOL    HW1 1233   2.092   0.540   1.039 -0.3615  1.4079  0.9556
  330SOL    HW2 1234   2.048   0.556   0.895  0.7643 -0.1948  0.4090
  331SOL     OW 1235   1.589   3.946   1.559  0.6672 -0.3022 -0.5199
  331SOL    HW1 1236   1.523   3.921   1.495 -0.3931 -1.6084  0.9886
  331SOL    HW2 1237   1.548   4.016   1.609  0.6269 -0.7210  0.0484
  332SOL     OW 1238   3.555   2.140   0.492 -0.3886 -0.0088  0.0078
  332SOL    HW1 1239   3.601   2.180   0.418 -0.6556 -0.8513 -0.6337
  332SOL    HW2 1240   3.615   2.073   0.524 -1.7233 -2.2347 -1.8567
  333SOL     OW 1241   1.617   0.105   1.344 -0.2301 -0.9794 -0.0988
  333SOL    HW1 1242   1.571   0.102   1.428  0.1633  0.9049  0.2401
  333SOL    HW2 1243   1.710   0.099   1.368 -0.1867 -3.9774 -0.7164
  334SOL     OW 1244   3.982   3.053   0.717 -0.2173 -0.2846 -0.0845
  334SOL    HW1 1245   4.055   3.012   0.670 -0.8646  0.9421 -2.3296
  334SOL    HW2 1246   3.910   3.051   0.654 -1.6454  0.0324  1.4816
  335SOL     OW 1247   1.317   0.391   2.587  0.3567  0.2774 -0.3867
  335SOL    HW1 1248   1.286   0.458   2.649  2.2626 -1.8691  3.2131
  335SOL    HW2 1249   1.396   0.429   2.548  0.5618  0.7104  0.4332
  336SOL     OW 1250   0.422   0.316   3.059  0.9003 -0.2027  0.0831
  336SOL    HW1 1251   0.404   0.375   2.985 -1.1157 -0.3172  0.4180
  336SOL    HW2 1252   0.397   0.367   3.136  1.1781 -0.7501  0.5393
  337SOL     OW 1253   1.753   3.702   3.019 -0.0030 -0.0674  0.0941
  337SOL    HW1 1254   1.810   3.749   3.080  0.8906 -1.3261  0.2635
  337SOL    HW2 1255   1.794   3.714   2.933 -0.3829  0.3701 -0.0304
  338SOL     OW 1256   3.429   2.534   2.727 -0.0844 -0.0816 -0.1799
  338SOL    HW1 1257   3.478   2.611   2.757 -0.2509 -0.0708  0.0683
  338SOL    HW2 1258   3.458   2.520   2.637  1.2049 -0.7522  0.3213
  339SOL     OW 1259   4.180   2.849   1.025 -0.1765 -0.0315  0.3531
  339SOL    HW1 1260   4.116   2.842   1.096 -0.5921  3.2311  0.4833
  339SOL    HW2 1261   4.133   2.897   0.956  0.9713 -1.0197 -1.1570
  340SOL     OW 1262   2.957   0.039   1.195  0.8547 -0.1553  0.1198
  340SOL    HW1 1263   2.986   0.128   1.214  1.9578 -0.6467  0.8635
  340SOL    HW2 1264   2.974   0.027   1.102  0.7150  0.4001  0.0194
  341SOL     OW 1265   1.523   3.867   3.083 -0.0433 -0.0180 -0.3650
  341SOL    HW1 1266   1.470   3.864   3.003  0.0695  0.0134 -0.4407
  341SOL    HW2 1267   1.575   3.787   3.080  2.5387  1.5615 -2.0885
  342SOL     OW 1268   3.746   2.944   0.088  0.3372 -0.4041  0.6253
  342SOL    HW1 1269   3.711   2.924   0.175 -1.0500  0.1410  0.2155
  342SOL    HW2 1270   3.749   2.859   0.044  0.5718 -0.6088  1.0245
  343SOL     OW 1271   0.258   4.310   2.436 -0.2785 -0.2757 -0.3262
  343SOL    HW1 1272   0.253   4.252   2.360  1.3606 -2.2352  0.9748
  343SOL    HW2 1273   0.350   4.336   2.439 -0.1099 -0.9712  1.4771
  344SOL     OW 1274   2.782   0.941   1.821 -0.1310 -0.1292 -0.0282
  344SOL    HW1 1275   2.859   0.901   1.781  1.0551  1.8285  0.1816
  344SOL    HW2 1276   2.817   1.005   1.882 -1.9219  1.0692 -0.1771
  345SOL     OW 1277   0.387   1.106   2.861  0.4687 -0.6703 -0.0503
  345SOL    HW1 1278   0.335   1.028   2.881  0.9449 -0.9018  0.3228
  345SOL    HW2 1279   0.332   1.180   2.888  0.4959 -0.9277  0.7308
  346SOL     OW 1280   0.511   2.255   1.830 -0.2430 -0.4547  0.0834
  346SOL    HW1 1281   0.572   2.321   1.863  1.1349 -0.8798 -1.4534
  346SOL    HW2 1282   0.566   2.178   1.814 -0.7091 -0.2355 -3.2310
  347SOL     OW 1283   1.079   0.792   2.248  0.0163  0.4166  0.1425
  347SOL    HW1 1284   0.990   0.827   2.244 -0.5812 -0.8980  1.2101
  347SOL    HW2 1285   1.134   0.869   2.264 -1.0713  1.0785  0.8473
  348SOL     OW 1286   2.147   1.762   0.724 -0.4764 -0.3429 -0.2421
  348SOL    HW1 1287   2.157   1.848   0.765 -1.0223 -0.8573  1.0404
  348SOL    HW2 1288   2.200   1.766   0.645 -0.3570  1.1154 -0.1089
  349SOL     OW 1289   1.955   3.427   2.615 -0.2347 -0.3900  0.7112
  349SOL    HW1 1290   1.995   3.511   2.595  1.1675 -0.9145  1.2267
  349SOL    HW2 1291   1.865   3.449   2.640 -0.4896  0.7503 -1.0734
  350SOL     OW 1292   2.735   1.010   2.487  0.1584 -0.1254 -0.3625
  350SOL    HW1 1293   2.717   0.916   2.495 -0.7569  0.2313  3.7447
  350SOL    HW2 1294   2.648   1.051   2.481  0.3971  0.5573  0.5618
  351SOL     OW 1295   1.763   2.120   2.121  0.2204 -0.0536 -0.1295
  351SOL    HW1 1296   1.832   2.055   2.138  0.7937  0.3980 -0.7087
  351SOL    HW2 1297   1.714   2.123   2.203  0.5137 -0.8324  0.0868
  352SOL     OW 1298   0.990   1.056   1.034 -0.0672 -0.0636 -0.5232
  352SOL    HW1 1299   0.909   1.076   0.988 -1.0971 -0.5952  1.0044
  352SOL    HW2 1300   0.995   0.960   1.033  0.1181 -0.0638  0.0910
  353SOL     OW 1301   0.771   0.018   1.648 -0.6772  0.1052  0.3916
  353SOL    HW1 1302   0.819  -0.024   1.719  0.0539  1.4256  0.7090
  353SOL    HW2 1303   0.838   0.063   1.597 -1.3779  0.4970 -0.2022
  354SOL     OW 1304   0.422   0.524   2.857  0.3493 -0.3084 -0.0141
  354SOL    HW1 1305   0.498   0.581   2.848  0.4836 -0.5248 -0.2605
  354SOL    HW2 1306   0.407   0.490   2.769  0.5613 -1.0226  0.2185
  355SOL     OW 1307   1.095   3.142   2.058 -0.0686 -0.2300 -0.2796
  355SOL    HW1 1308   1.030   3.126   1.990 -0.7916 -1.3767  0.6511
  355SOL    HW2 1309   1.044   3.152   2.139  0.8226  0.2123  0.2508
  356SOL     OW 1310   1.082   0.132   2.765  0.3299  0.0246  0.4268
  356SOL    HW1 1311   1.116   0.098   2.683  0.3419  0.7913  0.1017
  356SOL    HW2 1312   1.048   0.219   2.743 -0.2920 -0.0354  1.0895
  357SOL     OW 1313   0.063   3.448   2.118 -0.5619  0.4613  0.1485
  357SOL    HW1 1314   0.090   3.525   2.067  0.8887 -1.0481 -1.5407
  357SOL    HW2 1315   0.090   3.467   2.207  0.1997  1.7162 -0.3275
  358SOL     OW 1316   2.411   2.028   3.087 -0.0611  0.6127  0.3243
  358SOL    HW1 1317   2.335   2.054   3.036  0.1165  2.3649  0.8732
  358SOL    HW2 1318   2.387   1.943   3.125 -1.3063  0.6422 -0.3492
  359SOL     OW 1319   1.087   1.040   2.421 -0.2450 -0.8583 -0.5009
  359SOL    HW1 1320   0.997   1.021   2.392 -1.1827 -0.2524  1.7142
  359SOL    HW2 1321   1.090   1.135   2.428 -0.0265 -0.9411  0.9884
  360SOL     OW 1322   0.263   0.630   0.099 -0.0585 -0.4597  0.4469
  360SOL    HW1 1323   0.308   0.616   0.182 -0.0919 -1.8090  0.2595
  360SOL    HW2 1324   0.240   0.723   0.099  1.2100 -0.1303  1.2970
  361SOL     OW 1325   2.382   0.505   1.626  0.1308 -0.2163 -0.0201
  361SOL    HW1 1326   2.334   0.586   1.611 -0.3377 -0.5925 -0.5937
  361SOL    HW2 1327   2.474   0.531   1.626 -0.0410  0.3967  0.3565
  362SOL     OW 1328   1.839   2.216   2.612 -0.0503 -0.4412  0.0973
  362SOL    HW1 1329   1.866   2.137   2.566  0.5448  0.5553 -1.3492
  362SOL    HW2 1330   1.812   2.276   2.543  1.0600  1.1938  1.0035
  363SOL     OW 1331   3.542   3.426   2.624 -0.4587 -0.1056  0.3575
  363SOL    HW1 1332   3.580   3.470   2.700  0.1210 -2.1104  1.2841
  363SOL    HW2 1333   3.617   3.404   2.569 -0.9155  1.8466 -1.1578
  364SOL     OW 1334   4.184   0.097   0.020  0.1162 -0.1439  0.8169
  364SOL    HW1 1335   4.250   0.073  -0.045  0.1644 -1.9030  1.4674
  364SOL    HW2 1336   4.229   0.090   0.104 -1.0124 -1.9401  1.3159
  365SOL     OW 1337   4.327   2.476   2.628  0.2585  0.3456 -0.3672
  365SOL    HW1 1338   4.262   2.503   2.693  1.0671  0.1176  0.5658
  365SOL    HW2 1339   4.329   2.547   2.564  1.4793  1.9945  1.3837
  366SOL     OW 1340   1.897   0.219   2.708  0.6715 -0.0086  0.3811
  366SOL    HW1 1341   1.961   0.173   2.654  1.4813 -0.1719  1.4343
  366SOL    HW2 1342   1.813   0.197   2.669  1.1784 -0.7383 -0.3454
  367SOL     OW 1343   4.097   2.408   1.059 -1.1047  0.2446  0.0442
  367SOL    HW1 1344   4.052   2.396   1.143 -2.1444 -1.4295 -0.7087
  367SOL    HW2 1345   4.075   2.330   1.008  2.6231 -0.6934 -0.4121
  368SOL     OW 1346   4.063   2.353   1.319  0.3069  0.6825  0.0483
  368SOL    HW1 1347   4.125   2.377   1.388 -1.1650  2.1618  0.9438
  368SOL    HW2 1348   3.977   2.379   1.353 -0.7183 -0.3887 -1.5384
  369SOL     OW 1349   3.088   3.587   1.129  0.1556 -0.4576 -0.0330
  369SOL    HW1 1350   3.176   3.567   1.160  0.5975  0.4849 -0.6606
  369SOL    HW2 1351   3.031   3.559   1.201  0.9791 -0.7155  0.5391
  370SOL     OW 1352   4.093   0.373   1.883 -0.6516 -0.3773 -0.3548
  370SOL    HW1 1353   4.162   0.378   1.817 -1.1149  0.0251 -0.8123
  370SOL    HW2 1354   4.130   0.317   1.951  0.1141 -0.1898 -0.6079
  371SOL     OW 1355   1.388   1.551   2.500  0.3144 -0.2924 -0.0513
  371SOL    HW1 1356   1.366   1.509   2.417 -0.5762  2.5472 -1.3997
  371SOL    HW2 1357   1.484   1.549   2.502  0.3148 -1.9698 -0.2223
  372SOL     OW 1358   3.213   0.257   1.449  0.4976 -0.1164 -0.1762
  372SOL    HW1 1359   3.268   0.191   1.406 -0.9891 -0.5268 -1.5649
  372SOL    HW2 1360   3.150   0.206   1.500 -1.6411  0.0454 -2.4582
  373SOL     OW 1361   2.624   0.468   2.640 -0.3574 -0.7455  0.6982
  373SOL    HW1 1362   2.651   0.501   2.725  0.4048  0.7130 -0.0565
  373SOL    HW2 1363   2.672   0.522   2.577 -0.8101 -1.8531 -0.6548
  374SOL     OW 1364   2.136   3.811   0.424 -0.5143  0.6196  0.0097
  374SOL    HW1 1365   2.071   3.777   0.362 -0.0239  1.7091 -1.1469
  374SOL    HW2 1366   2.220   3.787   0.387 -0.1945 -1.6244  1.9972
  375SOL     OW 1367   2.639   3.610   0.605  0.2848  0.3438 -0.1052
  375SOL    HW1 1368   2.547   3.615   0.580  0.3092 -1.1460 -0.5511
  375SOL    HW2 1369   2.678   3.550   0.542  1.3334  0.0915  0.7585
  376SOL     OW 1370   0.600   1.817   2.773  0.0646 -0.4555 -0.1313
  376SOL    HW1 1371   0.676   1.865   2.741  1.8618 -2.6343  0.6585
  376SOL    HW2 1372   0.542   1.885   2.809  1.9039  1.2163 -0.1660
  377SOL     OW 1373   2.594   2.407   2.591  0.4278 -0.1376  0.3765
  377SOL    HW1 1374   2.566   2.420   2.681 -1.0320  1.5068 -0.2484
  377SOL    HW2 1375   2.658   2.476   2.574 -0.5598  0.6496 -0.2998
  378SOL     OW 1376   3.428   3.116   0.882 -0.5526  0.1197 -0.0880
  378SOL    HW1 1377   3.419   3.077   0.795 -1.8789  0.2260 -0.0177
  378SOL    HW2 1378   3.413   3.043   0.943  2.3791 -0.4285  0.1301
  379SOL     OW 1379   2.603   3.283   0.527 -0.1947  0.6726  0.1276
  379SOL    HW1 1380   2.695   3.295   0.550  0.0002 -1.6076  0.7414
  379SOL    HW2 1381   2.606   3.238   0.443 -0.7413  0.2877  0.3143
  380SOL     OW 1382   0.702   1.225   2.274 -0.2378  0.4029 -0.1202
  380SOL    HW1 1383   0.757   1.299   2.298  0.1582 -0.4903  1.9341
  380SOL    HW2 1384   0.640   1.260   2.210  0.2194  2.3735  0.4715
  381SOL     OW 1385   1.711   2.863   3.052  0.0115  0.1483 -0.0819
  381SOL    HW1 1386   1.806   2.851   3.051  0.0697  0.4169 -2.1486
  381SOL    HW2 1387   1.700   2.955   3.075  0.1707 -0.1696  1.3602
  382SOL     OW 1388   0.110   3.157   2.055 -0.0101  0.1469  0.2154
  382SOL    HW1 1389   0.015   3.150   2.060  0.0585  0.3701  2.5473
  382SOL    HW2 1390   0.126   3.239   2.007 -0.9017 -1.1521 -2.5133
  383SOL     OW 1391   1.225   3.848   1.889  0.1755  0.4427  0.0730
  383SOL    HW1 1392   1.267   3.772   1.849 -0.9448 -1.0494  1.5839
  383SOL    HW2 1393   1.266   3.856   1.975  0.0121  1.3097  0.0760
  384SOL     OW 1394   4.319   2.086   2.145  0.1993 -0.2966  0.3085
  384SOL    HW1 1395   4.306   2.092   2.240  0.2668 -0.0300  0.2994
  384SOL    HW2 1396   4.368   2.004   2.133 -0.2180 -0.5753  0.4644
  385SOL     OW 1397   0.724   2.524   0.924 -0.4178 -0.3270  0.4643
  385SOL    HW1 1398   0.739   2.532   0.830 -1.2142 -2.4747  0.0967
  385SOL    HW2 1399   0.683   2.607   0.949  1.9364  1.2585 -0.5604
  386SOL     OW 1400   0.719   2.978   2.311  0.2440 -0.7242  0.1819
  386SOL    HW1 1401   0.625   2.996   2.307  0.0966 -1.6147 -0.8553
  386SOL    HW2 1402   0.725   2.888   2.343  0.7004 -0.9146 -0.4123
  387SOL     OW 1403   1.632   1.376   0.835  0.3712  0.1504 -0.4514
  387SOL    HW1 1404   1.621   1.399   0.742  0.9394 -0.8120 -0.7709
  387SOL    HW2 1405   1.668   1.455   0.875 -0.5848  0.8299 -0.8863
  388SOL     OW 1406   4.292   0.875   2.925 -0.0676  0.5217  0.0903
  388SOL    HW1 1407   4.317   0.907   2.838 -0.4264  0.5464 -0.0047
  388SOL    HW2 1408   4.249   0.791   2.908  1.9072 -0.6235  0.4241
  389SOL     OW 1409   4.103   1.597   0.352 -0.0275  0.2954 -0.5367
  389SOL    HW1 1410   4.156   1.518   0.365  1.8846  1.5642 -0.2762
  389SOL    HW2 1411   4.046   1.599   0.429  3.5500  1.8470  2.3989
  390SOL     OW 1412   3.841   2.200   1.738 -0.7884 -0.2303  0.3578
  390SOL    HW1 1413   3.859   2.106   1.742 -0.1790 -0.1041  0.5880
  390SOL    HW2 1414   3.800   2.212   1.652 -1.1140 -0.7455  0.4346
  391SOL     OW 1415   0.741   1.842   2.414  0.4749 -0.1816 -0.3458
  391SOL    HW1 1416   0.684   1.919   2.415 -1.2815 -1.3747 -1.1264
  391SOL    HW2 1417   0.787   1.847   2.331  2.0839  1.1484  0.5892
  392SOL     OW 1418   2.348   3.370   0.588 -0.3902  0.7830 -0.1025
  392SOL    HW1 1419   2.337   3.399   0.678 -0.4300  0.6509 -0.0632
  392SOL    HW2 1420   2.439   3.343   0.582 -0.5356  0.2272  0.0707
  393SOL     OW 1421   1.900   2.013   2.379  0.1685  0.4801  0.4107
  393SOL    HW1 1422   1.815   1.969   2.383 -0.0918  1.0312  1.4025
  393SOL    HW2 1423   1.948   1.968   2.309 -1.0484  0.3640 -0.3726
  394SOL     OW 1424   0.776   4.240   0.806 -0.0191 -0.2249 -0.0219
  394SOL    HW1 1425   0.715   4.253   0.734 -1.3113 -0.7574  0.9361
  394SOL    HW2 1426   0.777   4.145   0.819 -1.3462 -0.0400  1.8940
  395SOL     OW 1427   3.938   2.362   0.461  0.6674  0.0018 -0.0661
  395SOL    HW1 1428   3.937   2.266   0.456 -0.3183  0.0120 -0.2602
  395SOL    HW2 1429   3.926   2.381   0.554  0.4897 -0.0589 -0.0766
  396SOL     OW 1430   3.764   0.488   0.102 -0.1804 -0.2573 -0.1355
  396SOL    HW1 1431   3.675   0.490   0.066 -0.6751  2.1474  0.9963
  396SOL    HW2 1432   3.815   0.541   0.041 -0.0017  0.0225  0.2489
  397SOL     OW 1433   0.197   0.361   2.015 -0.0311 -0.1738  0.5248
  397SOL    HW1 1434   0.144   0.328   1.944  0.2777 -1.5087  0.8913
  397SOL    HW2 1435   0.143   0.429   2.056 -1.1956 -1.0722  0.5140
  398SOL     OW 1436   3.106   3.065   3.101 -0.0090  0.5741 -0.1605
  398SOL    HW1 1437   3.155   2.987   3.079 -0.0648  0.4735  0.0672
  398SOL    HW2 1438   3.173   3.132   3.117  0.0626  0.4053  0.2721
  399SOL     OW 1439   0.452   3.732   0.420 -0.0585 -0.3014  0.5262
  399SOL    HW1 1440   0.505   3.653   0.421  1.3558  0.5821 -0.4770
  399SOL    HW2 1441   0.510   3.800   0.454 -1.1561  0.3800  1.1070
  400SOL     OW 1442   2.840   0.949   1.465  0.4904 -0.1214 -0.3004
  400SOL    HW1 1443   2.885   1.010   1.524  1.4427  1.5081 -2.5909
  400SOL    HW2 1444   2.867   0.862   1.496  0.9553  0.6468  1.6075
  401SOL     OW 1445   2.549   1.155   2.073 -0.1906  0.2822 -0.1800
  401SOL    HW1 1446   2.513   1.235   2.035  0.2848  0.8239  0.4887
  401SOL    HW2 1447   2.477   1.092   2.069 -1.1612  1.2883  0.9368
  402SOL     OW 1448   2.213   3.684   0.887  0.1759  0.3826 -0.4801
  402SOL    HW1 1449   2.306   3.703   0.883  0.5986 -1.1219  0.9942
  402SOL    HW2 1450   2.170   3.768   0.874  1.7186  1.0635 -1.4087
  403SOL     OW 1451   3.819   2.028   0.983  0.2770 -0.5269 -0.2029
  403SOL    HW1 1452   3.757   2.099   0.965  1.7969  1.3368  1.5041
  403SOL    HW2 1453   3.783   1.982   1.058  0.7581  0.3476  0.5778
  404SOL     OW 1454   2.347   1.643   2.148 -0.0256  0.2579  0.6931
  404SOL    HW1 1455   2.357   1.734   2.176  0.4013  0.6365 -0.6065
  404SOL    HW2 1456   2.256   1.621   2.170 -1.0989  1.9762 -1.5502
  405SOL     OW 1457   0.146   2.401   0.122  0.3176 -0.0982 -0.2116
  405SOL    HW1 1458   0.152   2.468   0.054 -2.3855  0.8052  0.3174
  405SOL    HW2 1459   0.109   2.446   0.198  1.3824 -1.5345  1.2357
  406SOL     OW 1460   3.321   4.030   0.233 -0.3958  0.4392  0.1297
  406SOL    HW1 1461   3.386   3.960   0.235  1.2397  1.8786  2.7866
  406SOL    HW2 1462   3.362   4.099   0.181 -0.1676  1.0210  1.0785
  407SOL     OW 1463   0.801   0.833   1.660 -0.0221  0.2343 -0.2187
  407SOL    HW1 1464   0.803   0.821   1.566  0.2599 -0.3913 -0.1398
  407SOL    HW2 1465   0.891   0.815   1.689 -0.8535 -3.3968  0.5922
  408SOL     OW 1466   0.402   0.749   0.852 -0.1505  0.0873 -0.0743
  408SOL    HW1 1467   0.309   0.761   0.868 -0.2851 -1.4224  0.4184
  408SOL    HW2 1468   0.444   0.768   0.935 -0.2241 -1.1531  0.2678
  409SOL     OW 1469   0.655   0.309   1.041  0.2063  0.0887 -0.2661
  409SOL    HW1 1470   0.715   0.272   0.977 -1.8951  0.9947 -2.9789
  409SOL    HW2 1471   0.609   0.233   1.077 -0.3291 -0.3459 -1.7744
  410SOL     OW 1472   2.683   4.369   1.890 -0.0410 -0.1762 -0.8060
  410SOL    HW1 1473   2.778   4.376   1.904 -0.2314 -1.0046  1.2442
  410SOL    HW2 1474   2.651   4.325   1.968 -2.4240  1.9931 -0.4263
  411SOL     OW 1475   3.844   0.028   1.268  0.5570  0.2107  0.6072
  411SOL    HW1 1476   3.799   0.112   1.280 -0.7717 -0.3206 -0.4056
  411SOL    HW2 1477   3.795  -0.034   1.322  1.7237  0.1270  1.6015
  412SOL     OW 1478   0.570   2.293   0.872 -0.2682 -0.3282  0.0079
  412SOL    HW1 1479   0.518   2.295   0.952  0.1225 -1.5460  0.3109
  412SOL    HW2 1480   0.621   2.373   0.874 -0.4419 -0.2305  0.8574
  413SOL     OW 1481   2.519   1.409   0.093 -0.2779  0.3416  0.6284
  413SOL    HW1 1482   2.462   1.419   0.017 -1.4692 -0.8247  1.3310
  413SOL    HW2 1483   2.559   1.495   0.104 -0.9782  0.8554 -0.6108
  414SOL     OW 1484   2.100   2.729   2.314 -0.0287 -0.0616 -0.1053
  414SOL    HW1 1485   2.058   2.721   2.229 -0.0592 -1.2448 -0.0023
  414SOL    HW2 1486   2.092   2.642   2.353  1.8346 -0.1367  0.2304
  415SOL     OW 1487   0.730   0.463   2.973  0.3167  0.4292  0.2357
  415SOL    HW1 1488   0.739   0.372   2.947  0.3555  0.3882  0.3901
  415SOL    HW2 1489   0.793   0.510   2.917 -0.4036  0.4977 -0.5265
  416SOL     OW 1490   0.228   2.731   2.525 -0.0729 -0.1279 -0.0263
  416SOL    HW1 1491   0.133   2.736   2.515 -0.1129 -0.1582  0.3380
  416SOL    HW2 1492   0.261   2.802   2.470 -0.3397  0.2944  0.3489
  417SOL     OW 1493   0.626   3.360   0.700 -0.0097 -0.4169 -0.7184
  417SOL    HW1 1494   0.714   3.325   0.690 -0.3234 -1.3281 -0.4092
  417SOL    HW2 1495   0.611   3.362   0.794 -1.5238 -3.5151 -0.7720
  418SOL     OW 1496   2.868   0.358   0.376 -0.2548  0.1947 -0.2176
  418SOL    HW1 1497   2.868   0.418   0.450 -0.0759  0.2717 -0.2781
  418SOL    HW2 1498   2.803   0.292   0.398 -0.8549  0.7175 -0.3984
  419SOL     OW 1499   1.456   2.063   0.942  0.1641 -0.0651 -0.0968
  419SOL    HW1 1500   1.491   2.127   0.880  1.1965  0.4270  0.9739
  419SOL    HW2 1501   1.402   2.005   0.888  1.4061  0.0675 -1.5382
  420SOL     OW 1502   0.846   1.850   2.167  0.6711 -0.4380 -0.3446
  420SOL    HW1 1503   0.788   1.787   2.124  1.8578 -0.8410 -1.4127
  420SOL    HW2 1504   0.875   1.907   2.096 -0.6236  1.5612  0.6363
  421SOL     OW 1505   3.913   3.431   0.501 -0.2880  0.0126 -0.3174
  421SOL    HW1 1506   3.904   3.523   0.478  1.2819  0.0752 -0.8076
  421SOL    HW2 1507   3.899   3.384   0.419  1.0035 -0.0380 -0.5242
  422SOL     OW 1508   0.854   4.332   2.108 -0.5075 -0.3240  0.1838
  422SOL    HW1 1509   0.856   4.283   2.190  0.1304 -0.8820 -0.1624
  422SOL    HW2 1510   0.767   4.372   2.106 -1.1634 -1.7064  0.3058
  423SOL     OW 1511   3.845   3.261   0.267  0.6887 -0.0754  0.3077
  423SOL    HW1 1512   3.862   3.330   0.204 -0.7721  0.7786  0.8019
  423SOL    HW2 1513   3.768   3.215   0.233  1.0733 -0.8597  0.4706
  424SOL     OW 1514   3.833   0.264   2.975  0.4055  0.0539  0.7348
  424SOL    HW1 1515   3.918   0.243   3.011  1.1006  0.2380 -0.7169
  424SOL    HW2 1516   3.797   0.180   2.946  0.5165  0.0916  0.4835
  425SOL     OW 1517   4.029   0.274   1.279 -0.1738 -0.2466  0.1044
  425SOL    HW1 1518   4.093   0.209   1.252  0.2111  0.2226 -0.1322
  425SOL    HW2 1519   4.027   0.268   1.374  2.6006  1.8864  0.4132
  426SOL     OW 1520   0.685   3.469   1.343 -0.4914  0.9505  0.4156
  426SOL    HW1 1521   0.716   3.476   1.253  0.8629  1.2752  0.8780
  426SOL    HW2 1522   0.641   3.553   1.360 -0.2296  1.1253  0.2379
  427SOL     OW 1523   1.121   1.451   1.298  0.0591  0.0519 -0.4542
  427SOL    HW1 1524   1.095   1.362   1.321 -0.1097  0.5758  1.6171
  427SOL    HW2 1525   1.126   1.451   1.202 -1.3413 -1.7754 -0.5854
  428SOL     OW 1526   4.230   3.729   2.285 -0.0515  0.6459  0.0700
  428SOL    HW1 1527   4.203   3.801   2.228  1.8594 -0.1231 -1.9616
  428SOL    HW2 1528   4.161   3.664   2.277 -0.1662  0.8644 -0.7800
  429SOL     OW 1529   0.280   2.268   1.501 -0.2645  0.3156  0.2011
  429SOL    HW1 1530   0.308   2.193   1.447  0.8488  0.8434  0.0110
  429SOL    HW2 1531   0.356   2.327   1.500 -1.0356  1.3330  0.5564
  430SOL     OW 1532  -0.017   1.685   0.507  0.1683  0.3864 -0.1276
  430SOL    HW1 1533  -0.006   1.735   0.426  1.1372  1.8535  0.8615
  430SOL    HW2 1534   0.045   1.724   0.568 -1.6790  0.4144  1.8379
  431SOL     OW 1535   0.522   1.985   0.409 -0.0091 -0.5671  0.4971
  431SOL    HW1 1536   0.483   2.069   0.435 -0.4963 -0.3603 -0.8157
  431SOL    HW2 1537   0.471   1.919   0.456 -1.5498 -0.2632 -0.6772
  432SOL     OW 1538   1.759   3.325   2.141  0.4089 -0.0770 -0.2840
  432SOL    HW1 1539   1.753   3.247   2.086 -3.6373  0.8600 -1.5390
  432SOL    HW2 1540   1.725   3.298   2.226  1.4280 -0.2472  0.0757
  433SOL     OW 1541   1.711   3.298   0.153  0.0036 -0.5232  0.1842
  433SOL    HW1 1542   1.683   3.390   0.148  1.4088 -0.0473  0.6994
  433SOL    HW2 1543   1.694   3.264   0.065 -1.0322  0.0666  0.1300
  434SOL     OW 1544   3.245   2.113   1.132 -0.3536 -0.4449 -0.1262
  434SOL    HW1 1545   3.268   2.084   1.220 -1.5885  2.0351  1.1184
  434SOL    HW2 1546   3.154   2.086   1.121 -0.2710 -0.5509 -0.5606
  435SOL     OW 1547   1.787   3.461   0.515 -0.4885 -0.0375  0.0382
  435SOL    HW1 1548   1.747   3.547   0.501  0.8802  0.3281 -2.1091
  435SOL    HW2 1549   1.874   3.480   0.549  0.0597 -0.5077 -1.0484
  436SOL     OW 1550   2.339   3.729   0.236 -0.1959  0.5443 -0.3082
  436SOL    HW1 1551   2.333   3.640   0.201  0.5462  0.6264 -0.6733
  436SOL    HW2 1552   2.397   3.774   0.175  1.0158  0.7452  0.9442
  437SOL     OW 1553   3.895   2.639   0.383  0.5964  0.3531  0.5260
  437SOL    HW1 1554   3.937   2.634   0.297  0.4056  2.2294  0.2751
  437SOL    HW2 1555   3.930   2.564   0.431 -0.0245 -1.3293 -1.4806
  438SOL     OW 1556   3.277   4.097   2.372 -0.0460  0.5017 -0.3814
  438SOL    HW1 1557   3.184   4.092   2.348 -0.5336 -4.4425  1.5245
  438SOL    HW2 1558   3.277   4.145   2.455 -1.0546 -0.3470  0.1299
  439SOL     OW 1559   2.350   2.864   2.292  0.4980 -0.5681  0.1918
  439SOL    HW1 1560   2.295   2.788   2.314  0.9015 -1.1970 -0.8834
  439SOL    HW2 1561   2.434   2.846   2.334  0.0271  0.2222  1.5341
  440SOL     OW 1562   3.351   0.641   0.700 -0.6651  0.0874  0.6167
  440SOL    HW1 1563   3.390   0.665   0.784 -0.4285 -0.1615  0.5825
  440SOL    HW2 1564   3.337   0.546   0.707 -1.1140  0.1496  0.5664
  441SOL     OW 1565   0.514   3.689   2.888  0.1402  0.3746  0.3171
  441SOL    HW1 1566   0.495   3.747   2.961 -2.9793  0.5530 -0.4816
  441SOL    HW2 1567   0.468   3.608   2.909  1.6471 -0.6388 -0.1358
  442SOL     OW 1568   2.667   0.493   2.003 -0.3507  0.2852  0.7809
  442SOL    HW1 1569   2.719   0.459   2.077 -1.9847 -0.0771  1.8289
  442SOL    HW2 1570   2.656   0.417   1.946  0.2508  0.3636  0.5514
  443SOL     OW 1571   2.664   4.002   0.880 -0.4603 -0.0719 -0.0561
  443SOL    HW1 1572   2.620   3.950   0.813  1.1650 -1.8123  0.1205
  443SOL    HW2 1573   2.627   4.090   0.872 -2.6531 -1.0066 -1.0251
  444SOL     OW 1574   1.373   3.133   2.021 -0.2311  0.2813  0.2004
  444SOL    HW1 1575   1.278   3.119   2.019 -0.3584  1.0932 -0.9086
  444SOL    HW2 1576   1.409   3.049   2.049 -1.0988 -1.2724 -2.8503
  445SOL     OW 1577   2.233   2.604   0.818  0.2721 -0.1984 -0.1605
  445SOL    HW1 1578   2.213   2.688   0.860 -0.8465 -0.0855 -0.8720
  445SOL    HW2 1579   2.176   2.541   0.862  0.8877 -0.5392  0.1633
  446SOL     OW 1580   2.659   3.641   2.708 -0.2364  0.2927  0.2508
  446SOL    HW1 1581   2.637   3.598   2.626  0.5815  0.0122  0.1783
  446SOL    HW2 1582   2.727   3.704   2.686  1.1181 -0.8817  0.9718
  447SOL     OW 1583   1.970   0.102   1.923 -0.0706 -0.2129 -0.7330
  447SOL    HW1 1584   1.964   0.036   1.992 -0.5399  1.9165  1.3957
  447SOL    HW2 1585   2.063   0.103   1.899  0.1338 -0.9149 -0.0169
  448SOL     OW 1586   0.536   0.718   1.098 -0.3238  0.1874  0.9308
  448SOL    HW1 1587   0.548   0.801   1.145 -0.6507  1.6199 -1.3157
  448SOL    HW2 1588   0.624   0.682   1.089 -0.1084  0.5548  1.5256
  449SOL     OW 1589   0.953   1.758   1.128  0.0400 -0.5113  0.2283
  449SOL    HW1 1590   0.975   1.747   1.036  0.5138  0.2304  0.2477
  449SOL    HW2 1591   0.947   1.853   1.141 -0.7727 -0.6249  0.7926
  450SOL     OW 1592   0.491   2.717   2.775  0.4797 -0.1046  0.0269
  450SOL    HW1 1593   0.443   2.674   2.704  1.3266  1.7477 -1.7435
  450SOL    HW2 1594   0.467   2.666   2.853 -1.8316 -1.1815 -1.2654
  451SOL     OW 1595   0.980   1.945   1.882  0.0747 -0.1858 -0.3587
  451SOL    HW1 1596   1.014   1.952   1.793  0.2153 -0.8804 -0.3656
  451SOL    HW2 1597   0.941   2.030   1.899  0.1855  0.0081 -1.0281
  452SOL     OW 1598   0.685   3.659   2.134  0.1325  0.6448 -0.4821
  452SOL    HW1 1599   0.693   3.695   2.223  0.0573 -0.1321 -0.1531
  452SOL    HW2 1600   0.775   3.635   2.111 -0.1665 -1.5317  0.4173
  453SOL     OW 1601   1.081   2.728   2.373 -0.0798  0.1435 -0.6891
  453SOL    HW1 1602   1.018   2.767   2.313 -1.0289 -0.2669  0.0053
  453SOL    HW2 1603   1.038   2.732   2.459  0.5508 -0.7806 -0.3102
  454SOL     OW 1604   0.489   2.664   1.253 -0.0906 -0.1512  0.1900
  454SOL    HW1 1605   0.488   2.571   1.230  1.8394 -0.3482  0.7304
  454SOL    HW2 1606   0.505   2.666   1.347  0.9057  0.7178  0.0212
  455SOL     OW 1607   3.344   1.150   2.835  0.0200 -0.0352  0.1921
  455SOL    HW1 1608   3.280   1.221   2.820  0.3615  0.3117  0.3616
  455SOL    HW2 1609   3.343   1.100   2.754  1.2290  1.3259 -0.7025
  456SOL     OW 1610   4.267   2.856   2.070  0.1302  0.2923  0.0939
  456SOL    HW1 1611   4.231   2.839   1.983 -0.7849 -0.0023  0.5145
  456SOL    HW2 1612   4.360   2.839   2.062 -0.3541 -2.8921 -0.0852
  457SOL     OW 1613   0.175   0.532   1.757 -0.2317 -0.0425 -0.1700
  457SOL    HW1 1614   0.109   0.463   1.760 -1.0619  0.6231 -1.9194
  457SOL    HW2 1615   0.162   0.575   1.673 -0.3846  2.8463  1.1712
  458SOL     OW 1616   3.716   1.801   2.461 -0.4829 -0.3315  0.3206
  458SOL    HW1 1617   3.799   1.760   2.485 -0.4867 -0.4726  0.0950
  458SOL    HW2 1618   3.676   1.826   2.545 -0.4165 -0.6631  0.4525
  459SOL     OW 1619   0.706   2.696   0.227  0.2180  0.1905 -0.6464
  459SOL    HW1 1620   0.720   2.762   0.159 -0.0274 -0.0868 -0.9725
  459SOL    HW2 1621   0.765   2.624   0.204  1.1983  0.6823  0.2501
  460SOL     OW 1622   2.366   0.929   2.693 -0.0941 -0.0757 -0.0472
  460SOL    HW1 1623   2.450   0.901   2.728  0.6395  2.6583  0.6108
  460SOL    HW2 1624   2.340   0.858   2.634  1.7250 -1.8601  1.1783
  461SOL     OW 1625   0.471   4.199   1.903  0.0722 -0.0787  0.1963
  461SOL    HW1 1626   0.377   4.184   1.901 -0.4176  2.2155  1.6218
  461SOL    HW2 1627   0.504   4.143   1.973 -0.3072 -0.4860  0.0497
  462SOL     OW 1628   1.501   0.090   1.582 -0.1226  0.4889 -0.1353
  462SOL    HW1 1629   1.409   0.113   1.594 -0.3535 -1.0093  1.3903
  462SOL    HW2 1630   1.545   0.122   1.661  0.4009 -0.0581 -0.1948
  463SOL     OW 1631   1.907   3.483   1.546 -0.3006 -0.0927  0.5945
  463SOL    HW1 1632   1.847   3.496   1.473 -0.8896  0.5502  1.1769
  463SOL    HW2 1633   1.994   3.495   1.508 -0.5515 -0.6396 -0.1766
  464SOL     OW 1634   1.869   0.318   2.957  1.0040  0.1857  0.1943
  464SOL    HW1 1635   1.820   0.263   3.019 -2.1109  0.8763 -1.4399
  464SOL    HW2 1636   1.877   0.263   2.879 -1.6033  1.6743 -1.2425
  465SOL     OW 1637   2.169   0.851   0.780 -0.4513 -0.9091  0.1974
  465SOL    HW1 1638   2.236   0.821   0.719 -1.2572 -2.0358 -0.1589
  465SOL    HW2 1639   2.192   0.808   0.863  0.0575 -0.1770  0.4515
  466SOL     OW 1640   1.000   2.037   1.123  0.1875 -0.0303  0.0995
  466SOL    HW1 1641   1.040   2.037   1.037  0.3589  0.9087  0.1742
  466SOL    HW2 1642   1.045   2.106   1.171 -2.7172  2.3942 -0.3839
  467SOL     OW 1643   0.565   2.405   1.590  0.4999  0.4525  0.3204
  467SOL    HW1 1644   0.652   2.388   1.627 -0.1535  0.5136  1.9370
  467SOL    HW2 1645   0.504   2.360   1.649 -0.4706 -1.5517 -2.0370
  468SOL     OW 1646   2.522   2.662   1.276  0.1354 -0.2342 -0.4438
  468SOL    HW1 1647   2.467   2.667   1.354 -1.1588 -1.8547 -1.1809
  468SOL    HW2 1648   2.541   2.568   1.267 -0.7728 -0.2367 -2.7394
  469SOL     OW 1649   4.385   3.381   2.858 -0.7467 -0.1973 -0.2425
  469SOL    HW1 1650   4.379   3.454   2.798 -0.1328 -1.0434 -1.3780
  469SOL    HW2 1651   4.396   3.304   2.802  1.8657 -0.8133  0.9466
  470SOL     OW 1652   0.767   0.963   3.092  0.1501 -0.0443 -0.4145
  470SOL    HW1 1653   0.767   0.868   3.079 -1.0554  0.1683 -2.4233
  470SOL    HW2 1654   0.849   0.992   3.053 -0.4899 -0.0933 -1.8914
  471SOL     OW 1655   3.556   3.173   0.265  0.1390 -0.6183  0.1090
  471SOL    HW1 1656   3.554   3.234   0.338 -1.4129 -0.4507 -0.0455
  471SOL    HW2 1657   3.535   3.088   0.304  1.5092 -0.9502  0.1920
  472SOL     OW 1658   0.841   0.772   1.401  0.1360  0.1102 -0.0921
  472SOL    HW1 1659   0.835   0.686   1.358  0.0507  0.2390 -0.3413
  472SOL    HW2 1660   0.927   0.806   1.376  0.5264 -0.2694  0.7072
  473SOL     OW 1661   0.835   4.013   1.980  0.2855 -0.2251  0.1654
  473SOL    HW1 1662   0.881   3.982   2.058  1.8380  1.7439  0.1061
  473SOL    HW2 1663   0.751   4.046   2.014  0.8858  0.4830  1.0132
  474SOL     OW 1664   0.632   1.640   1.584 -0.0401 -0.6987  0.6039
  474SOL    HW1 1665   0.553   1.691   1.563 -0.3037 -1.1566  0.4661
  474SOL    HW2 1666   0.683   1.641   1.504  0.4037  0.1388  0.8854
  475SOL     OW 1667   2.649   1.262   2.747 -0.2180 -0.0393  0.1709
  475SOL    HW1 1668   2.574   1.247   2.689 -0.1489 -1.3671  0.3946
  475SOL    HW2 1669   2.638   1.199   2.818  2.1155 -1.7286 -0.8021
  476SOL     OW 1670   1.205   4.222   0.986  0.4645  0.1135 -0.3149
  476SOL    HW1 1671   1.179   4.142   1.032  0.3844  0.1402 -0.3136
  476SOL    HW2 1672   1.224   4.284   1.056 -1.9701  0.9111 -0.2864
  477SOL     OW 1673   1.206   0.549   0.330 -0.7097 -0.8196 -0.5274
  477SOL    HW1 1674   1.123   0.565   0.375  0.8956  1.3637  1.8998
  477SOL    HW2 1675   1.218   0.454   0.337 -2.4414 -1.0507  0.0218
  478SOL     OW 1676  -0.021   2.567   2.010  0.0373 -0.2383 -0.5620
  478SOL    HW1 1677   0.046   2.635   1.998 -0.3897  0.6820  1.7814
  478SOL    HW2 1678   0.022   2.499   2.062 -0.4895 -0.1878 -0.0453
  479SOL     OW 1679   1.414   2.723   1.909 -0.7849 -0.0188  0.0225
  479SOL    HW1 1680   1.350   2.652   1.922 -1.4419  0.2171 -1.6564
  479SOL    HW2 1681   1.413   2.772   1.991 -0.1704 -2.0420  1.3022
  480SOL     OW 1682   0.914   3.190   2.279  0.0199  0.2434  0.2641
  480SOL    HW1 1683   0.880   3.279   2.286 -0.2689  0.1345  0.2889
  480SOL    HW2 1684   0.840   3.134   2.305  0.6570  0.0417  1.7256
  481SOL     OW 1685   0.334   3.213   1.386  0.0449  0.1537 -0.9883
  481SOL    HW1 1686   0.332   3.175   1.298 -1.8887  0.1291 -0.9767
  481SOL    HW2 1687   0.319   3.138   1.444 -0.1807  0.4020 -0.7267
  482SOL     OW 1688   0.679   1.752   0.693  0.0148  0.7158 -0.1686
  482SOL    HW1 1689   0.614   1.804   0.646 -0.2120  0.0764 -0.5716
  482SOL    HW2 1690   0.719   1.814   0.755 -1.5405  0.9437  0.6660
  483SOL     OW 1691   2.163   3.370   2.080  0.4676 -0.5782  0.0825
  483SOL    HW1 1692   2.141   3.299   2.020  1.6026 -3.0200  2.3263
  483SOL    HW2 1693   2.197   3.325   2.158  0.1350  2.4139  2.1117
  484SOL     OW 1694   3.321   1.496   1.478 -0.7144  0.1942 -0.2564
  484SOL    HW1 1695   3.267   1.563   1.520  0.9317  1.1835  0.3781
  484SOL    HW2 1696   3.327   1.524   1.387 -1.0526  0.2263 -0.2703
  485SOL     OW 1697   0.938   3.508   0.050  0.1935 -0.1134  0.1937
  485SOL    HW1 1698   0.871   3.577   0.055 -1.5166 -1.7567  0.8653
  485SOL    HW2 1699   0.895   3.435   0.007  1.8823 -0.9306 -0.2120
  486SOL     OW 1700   2.607   0.631   1.726 -0.3577  0.8528  0.2910
  486SOL    HW1 1701   2.643   0.642   1.814  0.2629  0.7770  0.0483
  486SOL    HW2 1702   2.599   0.720   1.692  1.7408  0.7859 -0.5003
  487SOL     OW 1703   2.244   2.595   2.802  0.2264  0.6689  0.4090
  487SOL    HW1 1704   2.161   2.554   2.776 -0.4215  1.9672  0.3471
  487SOL    HW2 1705   2.238   2.603   2.897  0.3696  0.6013  0.4243
  488SOL     OW 1706   3.016   1.001   2.557 -0.6557 -0.4987 -0.6560
  488SOL    HW1 1707   2.987   1.075   2.504 -0.2642 -0.7219 -1.1946
  488SOL    HW2 1708   2.959   1.003   2.634 -1.7442 -0.6239 -1.4332
  489SOL     OW 1709   0.476   2.551   0.102  0.3319  0.2183  0.5870
  489SOL    HW1 1710   0.497   2.466   0.141  2.3517 -0.5896 -2.0079
  489SOL    HW2 1711   0.542   2.610   0.137  0.5971  0.0766  0.3310
  490SOL     OW 1712   2.419   0.972   2.341 -0.6378 -0.6184 -0.7830
  490SOL    HW1 1713   2.394   0.915   2.414 -0.9691  0.1313 -0.2903
  490SOL    HW2 1714   2.484   0.922   2.292 -0.1340 -0.9910  0.2424
  491SOL     OW 1715   2.165   3.295   3.069 -0.5931  0.1474  0.4574
  491SOL    HW1 1716   2.218   3.340   3.135  0.1544 -0.4386  0.2759
  491SOL    HW2 1717   2.228   3.270   3.002 -1.1735 -0.2359  0.0501
  492SOL     OW 1718   0.031   2.688   0.770  0.1900 -0.4045  0.2423
  492SOL    HW1 1719   0.080   2.767   0.792  0.3556 -0.5496  0.3953
  492SOL    HW2 1720   0.002   2.654   0.855  2.5013 -2.0650  0.4683
  493SOL     OW 1721   0.374   1.685   1.369 -0.5732 -0.3006  0.6584
  493SOL    HW1 1722   0.298   1.662   1.317 -0.6542 -0.7328  0.9636
  493SOL    HW2 1723   0.443   1.625   1.339 -0.0761  0.7009 -0.2725
  494SOL     OW 1724   4.329   1.883   1.068 -0.3226  0.1216 -0.3591
  494SOL    HW1 1725   4.327   1.940   1.145 -0.9097 -0.5456  0.1330
  494SOL    HW2 1726   4.316   1.942   0.994 -0.0350  0.7344  0.0770
  495SOL     OW 1727   0.916   3.269   1.752 -0.0795 -0.1066  0.3974
  495SOL    HW1 1728   0.908   3.361   1.727 -0.9282 -0.0796  0.7632
  495SOL    HW2 1729   0.991   3.237   1.701  0.0460  0.7106  0.0598
  496SOL     OW 1730   1.282   2.741   1.131 -0.2996  0.1443 -0.0459
  496SOL    HW1 1731   1.204   2.748   1.076 -0.2489 -1.0330 -0.2958
  496SOL    HW2 1732   1.353   2.773   1.076 -0.8412  3.2364  0.8841
  497SOL     OW 1733   3.052   0.585   2.926 -0.0713 -1.1257 -0.1457
  497SOL    HW1 1734   3.111   0.624   2.861 -0.5256 -1.1298 -0.5614
  497SOL    HW2 1735   3.110   0.538   2.986  0.5456  0.4930  0.5981
  498SOL     OW 1736   3.048   0.899   2.819 -0.3424  0.0433 -0.1828
  498SOL    HW1 1737   3.131   0.852   2.811 -0.6977 -0.7667  0.7027
  498SOL    HW2 1738   3.073   0.986   2.850  0.1903 -0.1709  0.0029
  499SOL     OW 1739   1.158   0.782   1.947  0.3971 -0.3717 -0.2059
  499SOL    HW1 1740   1.223   0.847   1.921 -0.1900 -0.1192 -1.0637
  499SOL    HW2 1741   1.183   0.759   2.037  0.2621  1.4716  0.3400
  500SOL     OW 1742   1.662   3.247   1.844  0.2467  0.0080  0.0837
  500SOL    HW1 1743   1.628   3.291   1.767  0.3921  0.8420  0.4781
  500SOL    HW2 1744   1.588   3.196   1.878 -0.2759  0.8812  0.2801
  501SOL     OW 1745   0.106   1.247   0.169 -0.3557 -0.0082  0.0925
  501SOL    HW1 1746   0.124   1.257   0.262 -0.0320 -0.7066  0.1046
  501SOL    HW2 1747   0.192   1.254   0.127 -0.3778 -0.6654 -0.0695
  502SOL     OW 1748   3.704   0.898   1.977 -0.0768 -0.1370  0.0647
  502SOL    HW1 1749   3.643   0.910   2.050 -0.8344 -1.1024 -0.3739
  502SOL    HW2 1750   3.648   0.868   1.905  0.5947  1.1298 -1.0180
  503SOL     OW 1751   1.452   3.644   2.111 -0.0701 -0.1821 -0.0805
  503SOL    HW1 1752   1.390   3.638   2.183 -0.8837 -0.9273 -0.8056
  503SOL    HW2 1753   1.494   3.558   2.107  1.3521  0.4399  0.6649
  504SOL     OW 1754   1.793   4.266   2.338  0.4948 -0.4065 -0.1234
  504SOL    HW1 1755   1.785   4.278   2.432  1.9038  1.4575 -0.1862
  504SOL    HW2 1756   1.781   4.172   2.324 -0.2987 -0.6326  1.8239
  505SOL     OW 1757   0.531   0.309   2.329 -0.6786 -0.1908  0.1154
  505SOL    HW1 1758   0.487   0.386   2.292 -0.8147  1.2946  3.0364
  505SOL    HW2 1759   0.624   0.332   2.328 -0.7599  0.3563  1.4845
  506SOL     OW 1760   1.342   3.495   2.834 -0.3104 -0.1239 -0.2690
  506SOL    HW1 1761   1.365   3.549   2.758 -0.7807 -0.4072 -0.6181
  506SOL    HW2 1762   1.308   3.414   2.796 -1.0275 -0.0649  0.2357
  507SOL     OW 1763   1.726   2.673   1.930 -0.7833 -0.1898 -0.2315
  507SOL    HW1 1764   1.716   2.582   1.958 -0.8997  0.0738  0.6051
  507SOL    HW2 1765   1.640   2.698   1.897 -0.0896 -1.2197 -3.1012
  508SOL     OW 1766   2.587   2.807   2.948 -0.0172 -0.0942  0.3303
  508SOL    HW1 1767   2.550   2.827   3.034 -0.0851 -0.6529  0.4347
  508SOL    HW2 1768   2.573   2.887   2.897  0.5955  0.4701  1.0253
  509SOL     OW 1769   0.107   4.228   0.670  0.0295  0.1353 -0.1340
  509SOL    HW1 1770   0.185   4.226   0.725  0.2270  0.7500 -0.3723
  509SOL    HW2 1771   0.119   4.156   0.608 -0.0160 -0.3212  0.3775
  510SOL     OW 1772   1.585   3.610   1.666 -0.0267  0.4552  0.0320
  510SOL    HW1 1773   1.523   3.615   1.593  0.0331 -0.5485 -0.1009
  510SOL    HW2 1774   1.535   3.642   1.742 -0.7387 -0.3806 -0.0634
  511SOL     OW 1775   3.634   3.744   2.443  0.0029 -0.3183  0.0458
  511SOL    HW1 1776   3.562   3.806   2.448 -0.3430 -0.7940  1.5763
  511SOL    HW2 1777   3.611   3.685   2.371  0.3650  1.3004 -1.4671
  512SOL     OW 1778   1.387   3.619   1.848  0.2837 -0.4191 -0.2567
  512SOL    HW1 1779   1.418   3.597   1.936  0.3130  0.9732  0.1157
  512SOL    HW2 1780   1.320   3.554   1.829 -0.0563 -0.4601  0.9941
  513SOL     OW 1781   4.154   1.226   2.391 -0.2221 -0.0955  0.2681
  513SOL    HW1 1782   4.102   1.266   2.461 -0.5066 -0.0150  0.0168
  513SOL    HW2 1783   4.098   1.235   2.313  0.7212  1.2262 -0.3014
  514SOL     OW 1784   4.134   3.675   2.582  0.8351 -0.1585 -0.2259
  514SOL    HW1 1785   4.040   3.693   2.587  0.7598 -0.7677  0.7437
  514SOL    HW2 1786   4.161   3.712   2.498  0.0172  1.3787  0.1518
  515SOL     OW 1787   3.074   0.380   2.153 -0.2869  0.0638 -0.0029
  515SOL    HW1 1788   2.987   0.354   2.183 -1.6311  0.5246 -3.0626
  515SOL    HW2 1789   3.116   0.298   2.129 -0.2094 -0.0924  0.6508
  516SOL     OW 1790   1.289   2.728   1.403 -0.4697 -0.1621  0.1850
  516SOL    HW1 1791   1.318   2.637   1.408  0.9621  0.2913  0.7158
  516SOL    HW2 1792   1.295   2.751   1.310 -1.0359 -0.6694  0.0227
  517SOL     OW 1793   0.863   4.218   2.741 -0.2733  0.4333 -0.5068
  517SOL    HW1 1794   0.940   4.242   2.689  0.9919 -2.1581 -0.0031
  517SOL    HW2 1795   0.900   4.182   2.822 -2.0079 -0.8725 -0.2501
  518SOL     OW 1796   2.318   4.121   1.338  0.2311  0.3913  0.5384
  518SOL    HW1 1797   2.237   4.112   1.388  0.4060 -0.7624  0.6514
  518SOL    HW2 1798   2.328   4.215   1.325 -0.9085  0.5801  0.8767
  519SOL     OW 1799   3.178   1.369   2.812 -0.5212 -0.3875 -0.5347
  519SOL    HW1 1800   3.233   1.428   2.864 -0.6602  0.7917 -1.6842
  519SOL    HW2 1801   3.099   1.358   2.864 -0.1672 -0.1993  0.0549
  520SOL     OW 1802   4.401   3.023   2.458  0.1241 -0.1050  0.1933
  520SOL    HW1 1803   4.447   3.096   2.417  1.2157  0.4957  2.3059
  520SOL    HW2 1804   4.323   3.010   2.404  1.2119  0.9071 -1.7062
  521SOL     OW 1805   1.220   1.211   2.675  0.4735  0.2729 -0.2845
  521SOL    HW1 1806   1.185   1.241   2.759  0.0183 -0.2978 -0.2558
  521SOL    HW2 1807   1.312   1.192   2.692  0.2725 -0.2861  0.2158
  522SOL     OW 1808   2.666   1.427   2.453  0.0900 -0.0503 -0.7299
  522SOL    HW1 1809   2.619   1.466   2.379 -2.4935  0.8998  1.2837
  522SOL    HW2 1810   2.609   1.440   2.528  2.1422 -1.8866  1.3110
  523SOL     OW 1811   3.858   1.870   1.829 -0.3067 -0.0597 -0.0473
  523SOL    HW1 1812   3.853   1.840   1.738 -0.8985 -3.6890  1.0371
  523SOL    HW2 1813   3.935   1.826   1.864 -1.4641 -0.7065  1.8182
  524SOL     OW 1814   1.178   3.089   0.874  0.1517 -0.0365 -0.2311
  524SOL    HW1 1815   1.114   3.069   0.942 -0.5493  1.7656 -0.3113
  524SOL    HW2 1816   1.126   3.107   0.796  0.9174 -1.3669 -1.1011
  525SOL     OW 1817   4.234   1.542   0.810  0.1197 -0.3052 -0.5039
  525SOL    HW1 1818   4.263   1.485   0.738  0.5535  0.6002 -1.0632
  525SOL    HW2 1819   4.196   1.618   0.766  0.2142  0.1742  0.2293
  526SOL     OW 1820   2.799   0.594   2.464  0.0797 -0.1037  0.2850
  526SOL    HW1 1821   2.873   0.541   2.437  0.7451  1.7390 -1.8053
  526SOL    HW2 1822   2.838   0.667   2.513 -0.5272 -0.0557  0.7153
  527SOL     OW 1823   0.786   0.788   0.591  0.0438 -0.7838 -0.4511
  527SOL    HW1 1824   0.774   0.800   0.685 -0.2910  3.6476 -0.8477
  527SOL    HW2 1825   0.699   0.762   0.559  0.7493 -5.1189  0.5566
  528SOL     OW 1826   1.081   3.455   0.760  0.4171  0.3500  0.0146
  528SOL    HW1 1827   1.167   3.488   0.787  0.5843 -1.0430  1.2997
  528SOL    HW2 1828   1.021   3.485   0.828  0.4217 -1.1567  0.7192
  529SOL     OW 1829   1.537   0.182   2.775  0.6112 -0.8220  0.2591
  529SOL    HW1 1830   1.490   0.265   2.782 -0.4792 -1.3807 -0.0728
  529SOL    HW2 1831   1.584   0.188   2.692 -1.5018 -1.4708 -1.0821
  530SOL     OW 1832   4.155   4.151   1.749  0.3756  0.4923  0.9122
  530SOL    HW1 1833   4.068   4.153   1.710 -0.2987  0.7877  2.3702
  530SOL    HW2 1834   4.192   4.068   1.721  0.3249  1.0950 -1.1211
  531SOL     OW 1835   3.445   0.078   1.352 -0.2632  0.2125 -0.0708
  531SOL    HW1 1836   3.382   0.033   1.410 -0.2449  1.7740  1.2279
  531SOL    HW2 1837   3.523   0.024   1.356 -1.0415 -0.9959 -0.5659
  532SOL     OW 1838   1.705   3.524   2.668  0.7953 -0.0687 -0.3749
  532SOL    HW1 1839   1.678   3.435   2.691  1.8450 -0.0296  1.1647
  532SOL    HW2 1840   1.624   3.569   2.645 -0.0690 -0.7834  1.1506
  533SOL     OW 1841   0.559   2.789   0.545 -0.8107  0.3593 -0.1991
  533SOL    HW1 1842   0.616   2.841   0.489  1.0157 -0.9549  0.3401
  533SOL    HW2 1843   0.560   2.701   0.507 -0.7429 -0.1970  1.0330
  534SOL     OW 1844   0.495   4.408   2.848  0.1658  0.0539  0.4028
  534SOL    HW1 1845   0.435   4.415   2.923  1.4164 -0.2996  1.4794
  534SOL    HW2 1846   0.566   4.353   2.880  1.8502  1.7256 -0.3083
  535SOL     OW 1847   0.797   2.247   0.181 -0.6000  0.1639  0.1976
  535SOL    HW1 1848   0.839   2.191   0.116 -1.3305  0.0245 -0.1726
  535SOL    HW2 1849   0.822   2.209   0.266  0.1140  0.1709 -0.0028
  536SOL     OW 1850   2.694   0.397   0.149  0.4508 -0.4043 -0.5011
  536SOL    HW1 1851   2.646   0.478   0.166 -2.2153 -2.0235  0.2806
  536SOL    HW2 1852   2.762   0.395   0.216  0.9410  1.3779 -0.8685
  537SOL     OW 1853   1.769   2.532   0.784  0.6696  0.4798  0.0784
  537SOL    HW1 1854   1.674   2.520   0.773  0.4002  1.5818  0.9666
  537SOL    HW2 1855   1.806   2.511   0.698 -0.0605 -2.6728  0.4189
  538SOL     OW 1856   0.495   2.163   2.219 -0.3140  0.6922  0.0950
  538SOL    HW1 1857   0.521   2.134   2.306  2.2847  1.0954 -0.4622
  538SOL    HW2 1858   0.506   2.086   2.164 -1.4511  0.5783  0.0063
  539SOL     OW 1859   0.169   3.431   1.400 -0.4597  0.0734 -0.8737
  539SOL    HW1 1860   0.222   3.356   1.376 -0.2596  0.2262 -0.9132
  539SOL    HW2 1861   0.191   3.498   1.335  0.1791  0.5278 -0.2044
  540SOL     OW 1862   0.950   3.783   0.410 -0.1889  0.0632  0.4824
  540SOL    HW1 1863   0.938   3.764   0.317  0.8848 -1.2633  0.5793
  540SOL    HW2 1864   0.889   3.723   0.454  0.6648 -0.6730  0.6813
  541SOL     OW 1865   1.555   2.803   2.752  0.2063  0.1780 -0.2107
  541SOL    HW1 1866   1.506   2.768   2.677 -1.1124 -0.2088  0.7905
  541SOL    HW2 1867   1.531   2.896   2.755 -0.4289  0.0089  0.2234
  542SOL     OW 1868   1.194   3.077   1.348 -0.3214 -0.3487 -0.2363
  542SOL    HW1 1869   1.186   2.988   1.381 -0.2486 -0.2688 -0.0013
  542SOL    HW2 1870   1.244   3.069   1.267 -1.0881 -0.6293 -0.6914
  543SOL     OW 1871   2.108   2.301   0.202  0.5033 -0.0900  0.2191
  543SOL    HW1 1872   2.168   2.375   0.214 -0.5785  0.8445 -0.0211
  543SOL    HW2 1873   2.062   2.320   0.120 -1.3399  0.1031  1.2435
  544SOL     OW 1874   0.262   3.761   0.034  0.4302  0.0830 -0.0886
  544SOL    HW1 1875   0.279   3.766  -0.060  0.4839  2.3756  0.0052
  544SOL    HW2 1876   0.295   3.675   0.059  0.9686 -0.3319 -2.0468
  545SOL     OW 1877   0.685   3.114   0.968 -0.5773 -0.0487  0.0093
  545SOL    HW1 1878   0.622   3.085   0.902 -1.8195  1.2395  0.5741
  545SOL    HW2 1879   0.651   3.079   1.050  0.3365 -0.6889  0.1217
  546SOL     OW 1880   2.381   3.428   0.247  0.5472 -0.5813 -0.1398
  546SOL    HW1 1881   2.320   3.370   0.202 -0.3503 -0.3912  0.8044
  546SOL    HW2 1882   2.422   3.372   0.314  0.5507 -0.4172 -0.0033
  547SOL     OW 1883   0.579   3.523   1.769 -0.0235 -0.4993 -0.2918
  547SOL    HW1 1884   0.544   3.501   1.683 -0.2576 -1.6932  0.0965
  547SOL    HW2 1885   0.506   3.563   1.816 -0.5980 -1.9883  0.1383
  548SOL     OW 1886   3.085   3.077   2.406 -0.6205 -0.1386  0.0931
  548SOL    HW1 1887   3.141   3.147   2.374 -0.4197 -0.4062 -0.1446
  548SOL    HW2 1888   3.008   3.121   2.442 -0.4004  0.2118  0.1297
  549SOL     OW 1889   1.249   0.265   0.377 -0.1161 -0.7131 -0.4215
  549SOL    HW1 1890   1.167   0.220   0.397  0.9593 -1.4503  2.9528
  549SOL    HW2 1891   1.314   0.195   0.373  0.5766 -0.0328 -2.0375
  550SOL     OW 1892   0.514   1.455   2.214  0.3778  0.4531  0.3279
  550SOL    HW1 1893   0.449   1.488   2.277 -0.0872  0.2437 -0.0313
  550SOL    HW2 1894   0.598   1.479   2.251  0.0558  2.3523 -0.0925
  551SOL     OW 1895   4.309   3.437   1.565 -0.6094  0.1093  0.1945
  551SOL    HW1 1896   4.295   3.351   1.604 -0.3532 -0.9575 -1.8940
  551SOL    HW2 1897   4.378   3.423   1.500 -0.3399  1.9755  0.0132
  552SOL     OW 1898   1.894   1.115   2.150  0.5741  0.2300  0.0623
  552SOL    HW1 1899   1.916   1.160   2.069  0.1514  1.3223  0.5399
  552SOL    HW2 1900   1.954   1.040   2.153 -0.2821 -0.6007 -1.8968
  553SOL     OW 1901   4.155   2.398   0.237 -0.6166 -0.1805 -0.0366
  553SOL    HW1 1902   4.115   2.342   0.170  1.0195  0.2753 -1.4385
  553SOL    HW2 1903   4.111   2.482   0.227 -1.8774 -0.6937  0.9328
  554SOL     OW 1904   2.930   4.127   2.054 -0.2556 -0.0934  0.0944
  554SOL    HW1 1905   2.970   4.140   1.968  1.3714 -2.3993  0.4157
  554SOL    HW2 1906   2.840   4.101   2.035  0.4091 -1.7263 -1.0216
  555SOL     OW 1907   1.692   0.584   1.141  0.0385  0.5774 -0.2100
  555SOL    HW1 1908   1.720   0.511   1.085 -1.2277  0.3171 -0.5489
  555SOL    HW2 1909   1.643   0.641   1.082 -1.1317  0.4098  0.5783
  556SOL     OW 1910   2.784   2.018   1.590 -0.8468 -0.1668 -0.7851
  556SOL    HW1 1911   2.766   1.935   1.635 -2.5750  0.2713 -0.5858
  556SOL    HW2 1912   2.757   2.085   1.653  0.6220  0.5765 -0.9050
  557SOL     OW 1913   3.779   1.431   2.006  0.1781 -0.0380  0.3735
  557SOL    HW1 1914   3.714   1.361   2.005 -0.6480  0.6674  1.6715
  557SOL    HW2 1915   3.772   1.468   2.094  2.7931 -0.3371  0.7718
  558SOL     OW 1916   1.824   4.125   1.986  0.3981  0.2326  0.3444
  558SOL    HW1 1917   1.885   4.081   1.927  1.1360 -0.3620  1.5092
  558SOL    HW2 1918   1.875   4.196   2.024 -0.0248  0.5175  0.3844
  559SOL     OW 1919   4.318   2.514   3.012  0.3364  0.1029  0.4495
  559SOL    HW1 1920   4.263   2.514   2.933 -0.6177 -3.5560  0.9097
  559SOL    HW2 1921   4.273   2.572   3.073 -2.4055 -1.6733  0.2977
  560SOL     OW 1922   1.027   3.499   1.256  0.3039 -0.3571  0.1931
  560SOL    HW1 1923   1.029   3.530   1.346 -0.5149  0.0373  0.0798
  560SOL    HW2 1924   1.102   3.542   1.214  1.1744 -1.1711  0.8729
  561SOL     OW 1925   1.037   1.635   1.481 -0.3905 -0.1351 -0.5332
  561SOL    HW1 1926   1.091   1.610   1.406  1.3183  1.8953 -0.0726
  561SOL    HW2 1927   1.019   1.552   1.526  2.4763 -0.9325 -0.6482
  562SOL     OW 1928   3.484   2.339   1.596 -0.8227 -0.3305  0.0063
  562SOL    HW1 1929   3.560   2.354   1.540 -0.8518  3.8930  0.7547
  562SOL    HW2 1930   3.511   2.269   1.655  2.8431  1.3899  0.6383
  563SOL     OW 1931   2.150   1.128   0.822  0.2452 -0.0088 -0.2233
  563SOL    HW1 1932   2.150   1.033   0.821  1.5530 -0.0302 -1.3778
  563SOL    HW2 1933   2.171   1.152   0.912  1.7550 -0.8730 -0.3084
  564SOL     OW 1934   1.003   1.930   0.575  0.5682 -0.0390 -0.2496
  564SOL    HW1 1935   1.079   1.877   0.550  0.2203 -0.3842 -0.5787
  564SOL    HW2 1936   0.929   1.888   0.531  0.2175  0.4235 -0.1003
  565SOL     OW 1937   3.996   4.048   0.575  0.3644  0.4884  0.1650
  565SOL    HW1 1938   3.905   4.077   0.564 -0.1701 -1.5938 -1.4935
  565SOL    HW2 1939   4.048   4.116   0.533 -0.4543  1.4479  0.6686
  566SOL     OW 1940   1.593   0.390   2.412  0.4329  0.4875 -0.2163
  566SOL    HW1 1941   1.611   0.431   2.497  0.9095  1.5009 -0.7844
  566SOL    HW2 1942   1.676   0.396   2.365  0.2005 -0.1654 -0.7170
  567SOL     OW 1943   0.621   3.682   2.646 -0.1118  0.5577  0.0072
  567SOL    HW1 1944   0.569   3.644   2.575 -0.1678 -0.1211  0.4150
  567SOL    HW2 1945   0.591   3.639   2.725 -0.9175  2.1864  0.6353
  568SOL     OW 1946   2.758   4.118   0.488 -0.7848 -0.1747 -0.7833
  568SOL    HW1 1947   2.828   4.056   0.467  0.3679  1.0857 -0.8142
  568SOL    HW2 1948   2.678   4.068   0.474  0.0765 -2.1034  0.5887
  569SOL     OW 1949   1.560   4.179   1.945  0.5380  0.0275 -0.1400
  569SOL    HW1 1950   1.553   4.251   2.008 -0.6381 -0.1074 -0.0990
  569SOL    HW2 1951   1.652   4.151   1.952  0.5729  0.3600  1.1432
  570SOL     OW 1952   3.611   1.105   3.119  0.0094 -0.1622  0.2716
  570SOL    HW1 1953   3.678   1.167   3.147 -1.3706  1.4493  0.1627
  570SOL    HW2 1954   3.627   1.093   3.025  0.7821 -0.6453  0.4558
  571SOL     OW 1955   0.417   3.577   0.736  0.2095 -0.2966 -0.6176
  571SOL    HW1 1956   0.404   3.572   0.642  2.2298 -0.4966 -0.9386
  571SOL    HW2 1957   0.451   3.665   0.751 -1.3348  0.2001  0.1291
  572SOL     OW 1958   0.218   0.085   2.668  0.1946  0.1636 -0.2570
  572SOL    HW1 1959   0.289   0.063   2.728 -0.9022  0.5051  1.2150
  572SOL    HW2 1960   0.216   0.013   2.604  1.0816 -0.4454  0.3950
  573SOL     OW 1961   2.550   0.780   2.780 -0.3933  0.0522  0.1173
  573SOL    HW1 1962   2.640   0.767   2.750 -0.3939 -0.4162  0.3065
  573SOL    HW2 1963   2.517   0.692   2.798 -0.7232  0.2535  0.5345
  574SOL     OW 1964   3.974   1.711   2.541 -0.0065  0.6629  0.4762
  574SOL    HW1 1965   4.008   1.703   2.631  0.2336  1.8399  0.5011
  574SOL    HW2 1966   3.991   1.802   2.517 -0.6541  0.5278 -0.5360
  575SOL     OW 1967   1.350   1.893   0.756 -0.0400 -0.5139 -0.2219
  575SOL    HW1 1968   1.359   1.798   0.742  1.4764 -0.3193 -0.7597
  575SOL    HW2 1969   1.387   1.932   0.677 -0.8798  0.5397 -0.1091
  576SOL     OW 1970   0.318   3.798   1.535  1.1713 -0.3037 -0.0118
  576SOL    HW1 1971   0.369   3.876   1.558 -0.3060  0.5191  0.6504
  576SOL    HW2 1972   0.263   3.827   1.462  0.3248 -0.5832  0.4990
  577SOL     OW 1973   1.207   2.138   0.353  0.3356  0.3173  0.1271
  577SOL    HW1 1974   1.227   2.232   0.353 -0.3776  0.4808  0.4163
  577SOL    HW2 1975   1.112   2.134   0.370  0.1510 -0.4184 -0.9778
  578SOL     OW 1976   3.913   2.409   0.736 -0.2232  0.3432 -0.3747
  578SOL    HW1 1977   3.890   2.490   0.781  0.6803 -0.0746  0.8651
  578SOL    HW2 1978   3.849   2.345   0.768 -0.0121  0.2144 -0.2061
  579SOL     OW 1979   1.260   1.585   2.958 -0.0846 -0.1843 -0.4361
  579SOL    HW1 1980   1.314   1.529   3.014 -0.3703 -0.8677 -0.8355
  579SOL    HW2 1981   1.176   1.591   3.005 -0.7323 -1.7116 -1.3037
  580SOL     OW 1982   0.428   2.882   0.179  0.2927  0.6199  0.6151
  580SOL    HW1 1983   0.487   2.833   0.122 -1.7361 -1.4574  0.1622
  580SOL    HW2 1984   0.469   2.968   0.188  2.2543 -0.0199 -1.4085
  581SOL     OW 1985   1.687   1.803   1.309 -0.6123 -0.1001  0.3319
  581SOL    HW1 1986   1.779   1.796   1.285  0.0407  2.9455  1.4772
  581SOL    HW2 1987   1.644   1.838   1.231  0.0178  2.2111  0.9476
  582SOL     OW 1988   2.450   0.258   1.729 -0.1324 -0.4031 -0.3714
  582SOL    HW1 1989   2.529   0.239   1.679 -0.1754 -0.6805 -0.3307
  582SOL    HW2 1990   2.417   0.340   1.690  1.1544  0.7243  0.7967
  583SOL     OW 1991   2.463   2.075   1.096 -0.2378  0.2745  0.2464
  583SOL    HW1 1992   2.549   2.098   1.129 -0.6442  1.4550  0.5300
  583SOL    HW2 1993   2.416   2.038   1.171  0.5574 -2.0762 -0.3059
  584SOL     OW 1994   1.359   2.309   0.599  0.2958 -0.9533  0.1549
  584SOL    HW1 1995   1.367   2.224   0.642  3.4906 -0.9212 -0.1488
  584SOL    HW2 1996   1.420   2.305   0.526 -2.0132  0.4604 -1.9843
  585SOL     OW 1997   1.674   0.611   0.402 -0.4901 -0.0997 -0.7342
  585SOL    HW1 1998   1.630   0.529   0.426 -0.8749  0.0750 -0.8254
  585SOL    HW2 1999   1.614   0.680   0.432  0.0887  0.1578 -0.1611
  586SOL     OW 2000   0.652   0.355   0.631  0.3383 -0.0816 -0.0932
  586SOL    HW1 2001   0.644   0.397   0.716  0.4673 -1.1167  0.4364
  586SOL    HW2 2002   0.745   0.332   0.624  0.1638 -0.8121 -0.1104
  587SOL     OW 2003   3.818   2.175   2.432 -0.5622 -0.0352  0.6008
  587SOL    HW1 2004   3.882   2.104   2.437 -0.5863 -0.2027 -0.9561
  587SOL    HW2 2005   3.870   2.253   2.414 -0.4855  0.4888  2.7724
  588SOL     OW 2006   2.846   1.745   0.413  0.2924  0.0204  0.6349
  588SOL    HW1 2007   2.898   1.752   0.334  0.5996 -0.4858  0.7873
  588SOL    HW2 2008   2.878   1.815   0.470 -1.3131  1.7480 -0.4422
  589SOL     OW 2009   2.364   0.531   2.500  0.1339 -0.2639  0.6838
  589SOL    HW1 2010   2.313   0.451   2.497  2.0709 -1.5518 -0.3867
  589SOL    HW2 2011   2.447   0.506   2.540  1.1898  0.9326 -0.6272
  590SOL     OW 2012   0.579   2.067   2.458 -0.0214 -0.4355 -0.0078
  590SOL    HW1 2013   0.493   2.041   2.492 -1.9229  3.1869 -1.4642
  590SOL    HW2 2014   0.613   2.128   2.524  0.4983 -0.3403 -0.3603
  591SOL     OW 2015   4.164   0.890   2.118 -0.5707 -0.2613 -0.0546
  591SOL    HW1 2016   4.179   0.799   2.093  0.0752 -0.0717 -0.3953
  591SOL    HW2 2017   4.089   0.918   2.066 -1.7771 -1.0561  1.2158
  592SOL     OW 2018   2.342   1.823   0.189  0.4475 -0.1865 -0.5143
  592SOL    HW1 2019   2.259   1.872   0.192  0.6610  0.1200  0.5935
  592SOL    HW2 2020   2.351   1.785   0.276  1.3231 -0.4880 -0.7279
  593SOL     OW 2021   3.661   2.244   0.906 -0.3702  0.3749 -0.6528
  593SOL    HW1 2022   3.567   2.239   0.924 -0.3408  0.7674 -0.3740
  593SOL    HW2 2023   3.692   2.316   0.961 -0.2407  1.4798 -2.1182
  594SOL     OW 2024   2.013   2.962   1.187  0.2588 -0.5270 -0.7787
  594SOL    HW1 2025   1.948   3.030   1.202  1.3075  0.6775 -1.4272
  594SOL    HW2 2026   2.040   2.934   1.275 -0.0022  0.0908 -0.4976
  595SOL     OW 2027   0.967   3.582   2.094  0.3588 -0.5547  0.0416
  595SOL    HW1 2028   0.975   3.635   2.016 -0.8082 -1.2019 -0.5543
  595SOL    HW2 2029   1.049   3.533   2.099  1.5193  1.3347  0.6860
  596SOL     OW 2030   1.024   2.392   0.749 -0.2466  0.0729  0.1127
  596SOL    HW1 2031   0.931   2.368   0.743 -0.3043  0.2826  0.1344
  596SOL    HW2 2032   1.068   2.332   0.690 -0.5885  0.9550 -1.0917
  597SOL     OW 2033   2.297   0.033   1.758  0.4298  0.3408 -0.2476
  597SOL    HW1 2034   2.367  -0.021   1.720  0.7051  0.8983 -0.5411
  597SOL    HW2 2035   2.334   0.121   1.763 -0.0135  0.5051  0.2446
  598SOL     OW 2036   0.147   3.187   0.039 -0.4637 -0.4453 -0.3221
  598SOL    HW1 2037   0.108   3.152  -0.041  0.1864 -0.1954 -0.7532
  598SOL    HW2 2038   0.094   3.265   0.058 -0.1344 -0.0609 -0.9502
  599SOL     OW 2039   3.061   2.270   1.575  0.4419 -0.0165 -0.1583
  599SOL    HW1 2040   3.058   2.277   1.671  2.6688 -0.2509 -0.0126
  599SOL    HW2 2041   3.077   2.359   1.545  0.7745 -0.0909 -0.2143
  600SOL     OW 2042   4.168   1.634   0.069 -0.0092  0.3687  0.2906
  600SOL    HW1 2043   4.258   1.602   0.064 -0.0838  0.2140 -0.1258
  600SOL    HW2 2044   4.144   1.626   0.162 -0.4823 -2.1206  0.0261
  601SOL     OW 2045   3.875   0.160   1.790  0.2594  0.2605 -0.5610
  601SOL    HW1 2046   3.857   0.239   1.842 -2.3021  0.5538 -1.7176
  601SOL    HW2 2047   3.879   0.192   1.700  1.5470 -0.6523 -0.8526
  602SOL     OW 2048   3.193   1.532   2.605 -0.3628  0.3273 -0.1522
  602SOL    HW1 2049   3.112   1.519   2.556 -1.5327  0.1004  1.7298
  602SOL    HW2 2050   3.178   1.485   2.687  1.3684  0.9738  0.5628
  603SOL     OW 2051   1.819   3.487   1.157 -0.1324  0.2300 -0.4370
  603SOL    HW1 2052   1.760   3.417   1.186 -0.5207  0.8244  0.2523
  603SOL    HW2 2053   1.794   3.562   1.210 -0.0575  1.0374 -1.5287
  604SOL     OW 2054   3.888   0.356   2.631 -0.0176 -0.2301 -0.3024
  604SOL    HW1 2055   3.891   0.262   2.644 -0.1262 -0.2550 -0.4477
  604SOL    HW2 2056   3.876   0.393   2.718  1.8732 -0.2492 -0.0081
  605SOL     OW 2057   4.167   3.159   0.135  0.0939  0.1714 -0.0499
  605SOL    HW1 2058   4.225   3.097   0.178 -0.0633 -0.3871 -0.6259
  605SOL    HW2 2059   4.133   3.214   0.206 -1.5328 -1.8303  0.7935
  606SOL     OW 2060   1.963   2.722   2.050  0.7319  0.4039 -0.3075
  606SOL    HW1 2061   1.985   2.809   2.016  0.2084  0.3965 -0.6735
  606SOL    HW2 2062   1.875   2.705   2.016  1.0798 -0.5407 -0.7756
  607SOL     OW 2063   2.798   2.850   0.522 -0.5091 -0.1541  0.3582
  607SOL    HW1 2064   2.760   2.764   0.502  0.4949 -0.4412 -0.4062
  607SOL    HW2 2065   2.816   2.888   0.436 -2.1648  1.3980  0.6623
  608SOL     OW 2066   2.733   1.141   0.087  0.6497  0.0902 -0.0960
  608SOL    HW1 2067   2.670   1.072   0.065 -0.2478  0.5937  0.8732
  608SOL    HW2 2068   2.682   1.222   0.085  1.0078  0.3924  1.7165
  609SOL     OW 2069   2.886   0.562   0.567  0.0503 -0.0018  0.0379
  609SOL    HW1 2070   2.913   0.509   0.642 -1.8433 -0.4704  0.4394
  609SOL    HW2 2071   2.956   0.627   0.558  0.6230 -0.2996  1.8258
  610SOL     OW 2072   2.089   3.358   1.113 -0.2870  0.3281  0.4602
  610SOL    HW1 2073   2.002   3.392   1.133  0.4742  1.2588  2.5103
  610SOL    HW2 2074   2.074   3.281   1.058 -2.2535  1.9078 -1.3560
  611SOL     OW 2075   2.404   2.566   1.943 -0.0413  0.0296 -0.2035
  611SOL    HW1 2076   2.478   2.613   1.904 -1.3878  1.4873 -1.0976
  611SOL    HW2 2077   2.445   2.499   1.997  1.9458  1.1561 -0.2046
  612SOL     OW 2078   0.908   3.317   0.251 -0.6723  0.1570 -0.2731
  612SOL    HW1 2079   0.874   3.315   0.340  0.4934 -2.2322  0.2025
  612SOL    HW2 2080   0.976   3.385   0.252 -0.6910  0.1632  0.6387
  613SOL     OW 2081   1.386   3.660   1.493 -0.2818 -0.0518 -0.3454
  613SOL    HW1 2082   1.342   3.740   1.523 -0.9495 -0.6128  0.1816
  613SOL    HW2 2083   1.418   3.682   1.405  0.1929  1.0441  0.0807
  614SOL     OW 2084   1.143   3.175   1.631  0.7035  0.1522 -0.5386
  614SOL    HW1 2085   1.128   3.082   1.651 -0.0128  0.5421  0.9094
  614SOL    HW2 2086   1.184   3.175   1.545 -0.7993 -1.4295 -1.3053
  615SOL     OW 2087   0.852   2.589   1.768 -0.1705  0.0909 -0.3006
  615SOL    HW1 2088   0.795   2.656   1.728  0.8477  0.7579 -0.6874
  615SOL    HW2 2089   0.892   2.544   1.693  1.1917  0.8569 -0.0738
  616SOL     OW 2090   1.128   4.160   1.298 -0.6220 -0.7170 -0.3948
  616SOL    HW1 2091   1.183   4.187   1.371 -2.2552  0.2373  0.5447
  616SOL    HW2 2092   1.041   4.150   1.337 -1.3725 -0.9167 -2.0665
  617SOL     OW 2093   4.401   3.400   0.131 -0.2058 -0.2482 -0.2153
  617SOL    HW1 2094   4.338   3.380   0.201 -0.6093 -0.0661 -0.5261
  617SOL    HW2 2095   4.413   3.494   0.136  1.3456 -0.4684  0.9458
  618SOL     OW 2096   1.047   1.794   0.005 -0.1099 -0.4666  0.1671
  618SOL    HW1 2097   1.095   1.846   0.069 -0.2018  0.0133 -0.1487
  618SOL    HW2 2098   1.113   1.766  -0.058  0.1951 -1.9177  1.0786
  619SOL     OW 2099   1.263   1.719   0.487 -0.2098 -0.1827  0.4706
  619SOL    HW1 2100   1.265   1.647   0.424 -0.9846  0.2149 -0.0259
  619SOL    HW2 2101   1.294   1.681   0.569 -1.6249 -1.3663  0.5000
  620SOL     OW 2102   1.957   3.735   0.220  0.2237 -0.4943  0.1172
  620SOL    HW1 2103   1.877   3.703   0.263 -1.7967  2.1488 -1.3721
  620SOL    HW2 2104   1.974   3.672   0.151 -2.9244  0.7191 -1.9800
  621SOL     OW 2105   2.924   1.581   2.744 -0.2555  0.4209  0.2203
  621SOL    HW1 2106   2.910   1.491   2.713  0.1791  0.0490  1.0665
  621SOL    HW2 2107   2.950   1.629   2.665 -0.4564 -0.1959 -0.2376
  622SOL     OW 2108   3.538   1.891   2.241  0.5425  0.0382 -0.4872
  622SOL    HW1 2109   3.490   1.818   2.203 -0.1320  0.5242 -0.5741
  622SOL    HW2 2110   3.573   1.856   2.323 -1.0531  0.0406  0.2237
  623SOL     OW 2111   2.012   3.029   2.054 -0.3567 -0.3350  0.0428
  623SOL    HW1 2112   2.092   3.054   2.099 -0.8260  1.2694  0.0372
  623SOL    HW2 2113   2.025   3.058   1.964  0.2754 -2.8548 -0.7751
  624SOL     OW 2114   4.356   4.182   2.649 -0.0680  0.0851 -0.2939
  624SOL    HW1 2115   4.360   4.245   2.576  0.6594  0.6874  0.2440
  624SOL    HW2 2116   4.293   4.116   2.620  1.0375 -0.3064 -1.9654
  625SOL     OW 2117   2.674   0.075   2.480  0.2064 -0.2768  0.0845
  625SOL    HW1 2118   2.767   0.088   2.459  0.3984  1.9507  1.8358
  625SOL    HW2 2119   2.675   0.042   2.570 -0.6561  1.3362  0.7408
  626SOL     OW 2120   2.886   0.711   1.567 -0.2523 -0.3154 -0.1636
  626SOL    HW1 2121   2.835   0.640   1.528 -1.6124  0.8626 -0.5832
  626SOL    HW2 2122   2.885   0.692   1.661 -3.0555  0.6056  0.0763
  627SOL     OW 2123   0.811   1.694   1.344 -0.2928 -0.0722  0.3098
  627SOL    HW1 2124   0.844   1.702   1.254 -2.5146 -2.8372 -0.9116
  627SOL    HW2 2125   0.883   1.654   1.392  0.0445 -1.0914 -0.9703
  628SOL     OW 2126   2.904   2.537   0.789 -0.0453 -0.1699  0.2950
  628SOL    HW1 2127   2.829   2.488   0.755 -1.2564  0.7100  1.5339
  628SOL    HW2 2128   2.969   2.534   0.719 -1.0389 -1.3921 -0.6299
  629SOL     OW 2129   2.019   4.053   2.467  0.7057  0.2290 -0.2386
  629SOL    HW1 2130   2.063   4.089   2.544  2.4883 -2.7325  0.2994
  629SOL    HW2 2131   2.088   4.042   2.402 -0.3211  0.4406 -1.4043
  630SOL     OW 2132   1.558   1.137   0.611 -0.1784 -0.5108 -0.8879
  630SOL    HW1 2133   1.564   1.108   0.702 -1.5706  0.5616 -0.4089
  630SOL    HW2 2134   1.635   1.193   0.598 -0.3490 -0.0894 -0.1260
  631SOL     OW 2135   3.554   3.558   2.275 -0.3925 -0.4744 -0.0415
  631SOL    HW1 2136   3.539   3.465   2.294 -1.6227 -1.1686 -3.5672
  631SOL    HW2 2137   3.484   3.582   2.215  0.2187  2.6397  0.3061
  632SOL     OW 2138   3.080   0.270   1.204  0.5877 -0.4544  0.3615
  632SOL    HW1 2139   3.118   0.328   1.138  0.5974 -0.7017  0.1478
  632SOL    HW2 2140   3.106   0.309   1.287 -1.3811  1.1896  0.2800
  633SOL     OW 2141   0.991   2.077   1.519  0.9130 -0.0994  0.2486
  633SOL    HW1 2142   0.935   2.071   1.442  3.1221  1.8633 -1.6442
  633SOL    HW2 2143   1.020   1.987   1.534 -3.0428 -1.3732  1.7587
  634SOL     OW 2144   2.563   0.837   1.996 -0.1436  0.3258 -0.5080
  634SOL    HW1 2145   2.595   0.750   2.022 -0.1225  0.0101 -1.5471
  634SOL    HW2 2146   2.633   0.874   1.944  0.2690  1.4139  0.7655
  635SOL     OW 2147   4.332   4.179   0.132  0.2738 -0.0498  0.1265
  635SOL    HW1 2148   4.264   4.135   0.080 -0.4813  0.8198  0.3480
  635SOL    HW2 2149   4.409   4.123   0.123  0.3956  0.3877 -2.4873
  636SOL     OW 2150   0.983   0.225   2.006 -0.1227  0.2418 -0.2825
  636SOL    HW1 2151   0.959   0.137   2.034  0.9921 -0.7107 -2.1320
  636SOL    HW2 2152   0.973   0.224   1.911  0.2047  2.0293 -0.3794
  637SOL     OW 2153   4.214   3.016   2.278  0.0004 -0.3635  0.5866
  637SOL    HW1 2154   4.223   2.963   2.200  0.1088  0.3097  0.1365
  637SOL    HW2 2155   4.138   3.072   2.261 -0.5769 -0.8785  1.3577
  638SOL     OW 2156   3.177   0.997   0.037 -0.0886 -0.0738 -0.1653
  638SOL    HW1 2157   3.099   1.050   0.021  0.5738  0.6929 -1.0369
  638SOL    HW2 2158   3.161   0.915  -0.010 -0.0625  0.3775 -0.9738
  639SOL     OW 2159   2.028   2.889   0.411 -0.9405  0.5534 -0.5345
  639SOL    HW1 2160   1.960   2.948   0.381  0.0742  1.0239 -2.0142
  639SOL    HW2 2161   2.110   2.937   0.399 -0.3060  0.0249  1.2329
  640SOL     OW 2162   0.176   1.804   2.358  0.3597  0.0054  0.1202
  640SOL    HW1 2163   0.164   1.711   2.378  0.4350 -0.0790 -0.2173
  640SOL    HW2 2164   0.124   1.818   2.279 -2.8817  1.1259  2.2569
  641SOL     OW 2165   3.223   2.232   2.746  0.0568 -0.0279  0.0629
  641SOL    HW1 2166   3.257   2.203   2.661  0.6687 -0.1302  0.3391
  641SOL    HW2 2167   3.232   2.327   2.743 -0.2974  0.0014 -0.1428
  642SOL     OW 2168   3.316   3.712   0.526 -0.6755  0.0978 -0.1688
  642SOL    HW1 2169   3.247   3.758   0.575 -0.4890  0.3949 -0.1871
  642SOL    HW2 2170   3.362   3.660   0.593 -0.0656  0.9336  0.0694
  643SOL     OW 2171   2.584   3.096   2.505 -0.1928 -0.3957 -0.1264
  643SOL    HW1 2172   2.544   3.174   2.544 -1.5619 -0.5755 -1.0981
  643SOL    HW2 2173   2.557   3.099   2.414  3.2974  0.2764 -1.3096
  644SOL     OW 2174   0.665   1.774   1.087  0.1364  0.5432  0.1077
  644SOL    HW1 2175   0.672   1.867   1.110  1.8765  0.0736  1.7364
  644SOL    HW2 2176   0.752   1.751   1.054  0.0514 -0.7437  0.7438
  645SOL     OW 2177   2.098   3.006   1.633 -0.0735 -0.1390 -0.2626
  645SOL    HW1 2178   2.160   2.948   1.676 -0.0941 -0.0755 -0.1460
  645SOL    HW2 2179   2.027   3.016   1.696 -0.0487  0.0474 -0.2636
  646SOL     OW 2180  -0.006   0.060   0.204 -0.6106  0.7431  0.0709
  646SOL    HW1 2181  -0.035  -0.026   0.174  1.2864  0.3066 -0.6280
  646SOL    HW2 2182   0.049   0.042   0.280 -0.3750  1.3548  0.0507
  647SOL     OW 2183   1.916   0.222   0.144 -0.5877  0.2449 -0.2846
  647SOL    HW1 2184   1.854   0.155   0.174  0.5325 -1.4031 -1.4980
  647SOL    HW2 2185   1.964   0.247   0.223 -0.7606 -0.6553  0.1188
  648SOL     OW 2186   2.299   3.609   2.447  0.5272 -0.1678  0.6963
  648SOL    HW1 2187   2.211   3.625   2.482  0.2839 -1.8219  0.8956
  648SOL    HW2 2188   2.353   3.677   2.488 -0.6391  0.8681  0.5808
  649SOL     OW 2189   2.624   4.364   1.262  0.1358  0.3199  0.2864
  649SOL    HW1 2190   2.706   4.317   1.279  0.0229  0.1721  0.4159
  649SOL    HW2 2191   2.641   4.412   1.181  1.0637  1.9175  1.3878
  650SOL     OW 2192   0.227   1.598   3.093 -0.1156  0.2860 -0.7222
  650SOL    HW1 2193   0.269   1.577   3.010  1.7548 -0.8616  0.4277
  650SOL    HW2 2194   0.137   1.567   3.084  0.6896 -2.0027 -1.5470
  651SOL     OW 2195   3.548   2.083   1.772  0.4968 -0.3241  0.6328
  651SOL    HW1 2196   3.458   2.052   1.758  0.5093 -0.3948  0.7082
  651SOL    HW2 2197   3.547   2.121   1.860  0.2533  0.7114  0.2021
  652SOL     OW 2198   2.423   0.236   1.250 -0.5568 -0.3477  0.3977
  652SOL    HW1 2199   2.416   0.168   1.182  1.3783  0.1211 -0.3413
  652SOL    HW2 2200   2.514   0.265   1.245 -1.2410  2.0816  0.9116
  653SOL     OW 2201   2.321   0.322   0.450  0.4041 -0.3035 -0.0998
  653SOL    HW1 2202   2.325   0.414   0.478  1.2926 -0.5637  0.7016
  653SOL    HW2 2203   2.339   0.273   0.530 -2.8138 -1.3080  0.1386
  654SOL     OW 2204   3.281   3.215   0.167 -0.0727 -0.0602  0.0149
  654SOL    HW1 2205   3.225   3.276   0.119 -0.2189  0.6112  1.0070
  654SOL    HW2 2206   3.362   3.265   0.183 -0.4854  0.1647  1.5092
  655SOL     OW 2207   0.401   1.096   2.470  0.0537  0.3613 -0.1879
  655SOL    HW1 2208   0.402   1.192   2.471 -0.1444  0.4334 -2.1679
  655SOL    HW2 2209   0.463   1.070   2.538  0.6701  1.9060 -0.1222
  656SOL     OW 2210   0.208   3.554   1.669 -0.4347  0.0485  0.3200
  656SOL    HW1 2211   0.221   3.500   1.591  2.9089 -0.9731  1.4213
  656SOL    HW2 2212   0.252   3.637   1.649  0.5542 -0.2625  1.1088
  657SOL     OW 2213   2.129   3.251   2.705  0.4872 -0.7395 -0.3682
  657SOL    HW1 2214   2.060   3.306   2.669  0.6147 -0.5619 -0.3416
  657SOL    HW2 2215   2.082   3.184   2.755  0.2967 -1.1497 -1.0806
  658SOL     OW 2216  -0.009   0.449   2.900 -0.1222  0.0362 -0.4201
  658SOL    HW1 2217   0.048   0.524   2.885  0.7289 -0.0365  1.9947
  658SOL    HW2 2218  -0.038   0.458   2.991  0.8019 -3.0321  0.3001
  659SOL     OW 2219   4.137   2.928   0.542  0.3238  0.0409  0.1099
  659SOL    HW1 2220   4.120   2.835   0.558 -2.8035  0.3601 -0.5293
  659SOL    HW2 2221   4.198   2.929   0.468  0.6060 -1.4981  0.2957
  660SOL     OW 2222   3.975   0.313   0.145 -0.4393  0.5318 -0.2611
  660SOL    HW1 2223   3.960   0.261   0.066  2.0583 -0.5704 -0.1103
  660SOL    HW2 2224   3.901   0.373   0.149 -3.1798 -2.5498 -0.8094
  661SOL     OW 2225   3.244   2.853   3.020  0.0842  0.2311 -0.3381
  661SOL    HW1 2226   3.307   2.782   3.032 -1.4504 -0.7441  3.2776
  661SOL    HW2 2227   3.162   2.809   2.999 -0.4920  1.0559  0.1142
  662SOL     OW 2228   2.241   1.191   0.551  0.0737  0.0621 -0.2359
  662SOL    HW1 2229   2.325   1.154   0.524 -0.3679  0.7281 -2.7778
  662SOL    HW2 2230   2.240   1.180   0.647  1.4138 -3.3118 -0.4428
  663SOL     OW 2231   4.363   1.229   0.688  0.4485 -0.1438  0.6177
  663SOL    HW1 2232   4.302   1.161   0.715 -0.5497  0.0155 -1.0681
  663SOL    HW2 2233   4.383   1.209   0.596  1.6467  0.7461  0.6543
  664SOL     OW 2234   3.319   0.990   2.628 -0.1244  0.6142 -0.3076
  664SOL    HW1 2235   3.255   1.020   2.563  0.6472 -1.2307 -2.0412
  664SOL    HW2 2236   3.385   0.943   2.576  1.6462  0.8447  1.6174
  665SOL     OW 2237   2.480   0.797   1.355  0.5049 -0.1005 -0.0374
  665SOL    HW1 2238   2.547   0.739   1.319  1.2234 -0.0912  1.2541
  665SOL    HW2 2239   2.505   0.811   1.446 -1.4588 -0.3987  0.6082
  666SOL     OW 2240   1.536   1.124   0.225 -0.1994 -0.3509  0.1246
  666SOL    HW1 2241   1.539   1.170   0.309 -2.2507 -0.0535  0.0924
  666SOL    HW2 2242   1.524   1.194   0.161  1.4285 -0.5705 -0.4662
  667SOL     OW 2243   2.173   2.057   2.927  0.5898  0.2155 -0.3801
  667SOL    HW1 2244   2.143   2.065   2.836 -2.3274  2.4328  0.6022
  667SOL    HW2 2245   2.094   2.034   2.976  2.1470 -1.1767  1.6046
  668SOL     OW 2246   2.189   0.684   0.295 -0.0346 -0.4159 -0.0696
  668SOL    HW1 2247   2.219   0.693   0.204 -2.8265  1.5577 -0.9245
  668SOL    HW2 2248   2.244   0.746   0.344  1.2634 -1.2486 -0.4185
  669SOL     OW 2249   3.820   2.294   3.050  0.6903 -0.1490 -0.3833
  669SOL    HW1 2250   3.878   2.355   3.006  1.3245 -0.2571  0.2847
  669SOL    HW2 2251   3.732   2.319   3.021  1.0091  0.5063 -0.8019
  670SOL     OW 2252   0.593   1.652   2.551  0.4095  0.5360 -0.3666
  670SOL    HW1 2253   0.573   1.689   2.637  1.5461 -0.8858  0.5498
  670SOL    HW2 2254   0.659   1.711   2.515 -0.2157  1.2518 -0.3668
  671SOL     OW 2255   1.075   3.003   2.942  0.1506  0.5791 -0.3114
  671SOL    HW1 2256   0.983   2.978   2.947 -0.0050  1.2716  0.6872
  671SOL    HW2 2257   1.104   2.975   2.855 -0.8569 -0.1126 -0.4305
  672SOL     OW 2258   3.524   4.153   2.922  0.3287 -0.4612 -0.5395
  672SOL    HW1 2259   3.619   4.152   2.918  0.4059  1.3129  0.0226
  672SOL    HW2 2260   3.499   4.236   2.880 -0.8669 -0.1596  0.6891
  673SOL     OW 2261   1.697   0.157   2.517  0.2892 -0.4310  0.5030
  673SOL    HW1 2262   1.680   0.239   2.472  0.8187  0.4602  1.8506
  673SOL    HW2 2263   1.680   0.089   2.452 -0.0847  0.7445 -0.6589
  674SOL     OW 2264   0.098   3.797   2.298 -0.3881  0.1561 -0.0854
  674SOL    HW1 2265   0.028   3.732   2.287  0.7525 -0.7990 -2.2084
  674SOL    HW2 2266   0.077   3.865   2.235  0.8965 -0.4623 -1.2299
  675SOL     OW 2267   0.225   1.340   0.944  0.4873 -0.6331  0.1060
  675SOL    HW1 2268   0.309   1.379   0.966  0.5586 -0.5869 -0.2366
  675SOL    HW2 2269   0.160   1.401   0.981  0.5853  0.3152 -1.2110
  676SOL     OW 2270   2.709   4.385   2.753 -0.2433  0.1662  0.3185
  676SOL    HW1 2271   2.637   4.323   2.745 -0.1488  0.1852 -1.0534
  676SOL    HW2 2272   2.673   4.457   2.805 -0.3001 -1.0680  2.0850
  677SOL     OW 2273   3.955   2.527   3.056  0.1347  0.1275  0.1995
  677SOL    HW1 2274   4.017   2.531   3.129  2.2600 -1.2517 -1.3940
  677SOL    HW2 2275   3.873   2.560   3.092  0.9990 -0.7382  3.2687
  678SOL     OW 2276   3.672   2.710   2.694  0.3961  0.0684 -0.4235
  678SOL    HW1 2277   3.755   2.709   2.742  1.9511 -2.0936 -2.8919
  678SOL    HW2 2278   3.697   2.723   2.603 -2.0030 -0.4384 -1.2379
  679SOL     OW 2279   0.662   2.516   2.588 -0.0266 -0.4158  0.0276
  679SOL    HW1 2280   0.661   2.422   2.606  1.8048 -0.2430  1.3099
  679SOL    HW2 2281   0.642   2.557   2.673  0.2159  0.3586 -0.2790
  680SOL     OW 2282   3.612   3.712   1.276 -0.4042  0.0008  0.0385
  680SOL    HW1 2283   3.649   3.663   1.349  0.4439  0.3798 -0.1346
  680SOL    HW2 2284   3.650   3.799   1.283  0.2448 -0.1514 -1.2516
  681SOL     OW 2285   1.947   4.268   1.240  0.5527  0.5931  0.0151
  681SOL    HW1 2286   1.903   4.345   1.277 -1.5043 -0.6939  0.3851
  681SOL    HW2 2287   2.013   4.246   1.306 -1.5934 -0.3462  2.0197
  682SOL     OW 2288   4.129   1.751   0.660 -0.3465 -0.0134  0.6799
  682SOL    HW1 2289   4.153   1.722   0.572  0.1985 -0.3537  0.9381
  682SOL    HW2 2290   4.133   1.847   0.656 -1.8460  0.0585 -0.0906
  683SOL     OW 2291   3.496   0.772   0.014  0.3334  0.7676 -0.7146
  683SOL    HW1 2292   3.471   0.682   0.034 -1.3201  1.8011  2.8892
  683SOL    HW2 2293   3.424   0.806  -0.039 -0.0290  0.4453 -0.4391
  684SOL     OW 2294   2.352   2.611   2.423 -0.1595 -0.2894 -0.5261
  684SOL    HW1 2295   2.314   2.592   2.509  0.0611 -1.3335 -0.6413
  684SOL    HW2 2296   2.290   2.573   2.361 -0.6791  1.0814 -0.8793
  685SOL     OW 2297   4.083   3.415   2.333  0.5371  0.1447 -0.0305
  685SOL    HW1 2298   4.004   3.463   2.310 -0.0292  0.2004  1.9009
  685SOL    HW2 2299   4.131   3.407   2.250 -1.0679  0.8455 -1.0695
  686SOL     OW 2300   3.891   4.079   2.162 -0.0609 -0.5168  0.0387
  686SOL    HW1 2301   3.967   4.116   2.118 -0.5347  0.1117 -0.2869
  686SOL    HW2 2302   3.832   4.154   2.172 -0.4035 -0.8807  0.7770
  687SOL     OW 2303   0.320   2.943   1.445  0.0181  0.0081  0.1235
  687SOL    HW1 2304   0.279   2.857   1.454  0.7244 -0.4363 -0.7682
  687SOL    HW2 2305   0.409   2.931   1.479 -0.8669  1.2689  3.2110
  688SOL     OW 2306   3.466   3.012   0.580  0.2187  0.1257 -0.4354
  688SOL    HW1 2307   3.413   3.049   0.509 -1.7954 -0.9896  0.4138
  688SOL    HW2 2308   3.406   2.954   0.626  1.5351  0.6484  2.0603
  689SOL     OW 2309   0.783   3.367   3.085 -0.2715 -0.2504 -0.0183
  689SOL    HW1 2310   0.765   3.437   3.022  0.4797 -1.1938 -1.3298
  689SOL    HW2 2311   0.702   3.360   3.136 -0.9965  0.3788 -1.0394
  690SOL     OW 2312   3.906   3.959   2.636  0.6319  1.3234  0.7775
  690SOL    HW1 2313   3.920   3.953   2.731  0.0577  1.0576  0.8474
  690SOL    HW2 2314   3.878   3.871   2.611 -0.5414  1.7411  0.5833
  691SOL     OW 2315   1.686   1.617   1.077 -0.1132 -0.1115 -0.3459
  691SOL    HW1 2316   1.738   1.665   1.012 -1.0890 -0.3336 -1.3145
  691SOL    HW2 2317   1.606   1.669   1.086  0.3359  0.3497  1.2988
  692SOL     OW 2318   4.285   0.376   0.766 -0.6384  0.0104 -0.5733
  692SOL    HW1 2319   4.339   0.353   0.691 -3.0221 -0.9384 -2.1227
  692SOL    HW2 2320   4.271   0.471   0.759  0.7930  0.2736 -0.1158
  693SOL     OW 2321   2.929   1.685   0.933 -0.1318 -0.3404 -0.5894
  693SOL    HW1 2322   2.960   1.775   0.944  1.7878 -0.9213 -0.7868
  693SOL    HW2 2323   2.856   1.677   0.995 -0.3984  1.3606 -0.6396
  694SOL     OW 2324   3.517   1.627   2.718 -0.8616 -0.0228 -0.2353
  694SOL    HW1 2325   3.574   1.703   2.707 -1.8937  0.9208  0.6571
  694SOL    HW2 2326   3.558   1.576   2.787 -0.2983 -0.1607 -0.6624
  695SOL     OW 2327   2.879   2.498   2.797  1.0789  0.3223 -0.7426
  695SOL    HW1 2328   2.840   2.481   2.882 -0.3717 -0.3556 -1.5052
  695SOL    HW2 2329   2.850   2.586   2.774 -0.0910 -0.1904 -1.3201
  696SOL     OW 2330   2.326   1.911   2.432 -0.0550 -0.0861 -0.5091
  696SOL    HW1 2331   2.291   1.980   2.489 -1.1484 -1.7572  0.9671
  696SOL    HW2 2332   2.414   1.895   2.465  0.2561  0.6960 -0.9528
  697SOL     OW 2333   3.697   1.039   0.948 -0.2568 -0.0206  0.1050
  697SOL    HW1 2334   3.750   0.963   0.975  1.5424  1.0607 -0.1977
  697SOL    HW2 2335   3.703   1.039   0.853 -0.1112  0.5806  0.1128
  698SOL     OW 2336   3.006   4.155   0.936 -0.1697  0.5841  0.6568
  698SOL    HW1 2337   3.079   4.186   0.882 -0.0162 -2.0901 -0.8709
  698SOL    HW2 2338   2.928   4.173   0.884 -0.1875 -0.3959  0.3303
  699SOL     OW 2339   1.242   4.182   1.551 -0.1706 -0.2652  0.3463
  699SOL    HW1 2340   1.318   4.225   1.589  0.4532 -0.0098 -1.0886
  699SOL    HW2 2341   1.199   4.138   1.624  0.9887  0.1341  1.2954
  700SOL     OW 2342   1.876   3.142   1.004  0.4238 -0.1949  0.4082
  700SOL    HW1 2343   1.809   3.122   1.069 -0.6195 -1.4298 -0.9646
  700SOL    HW2 2344   1.904   3.056   0.971  0.6900  0.3802 -0.9684
  701SOL     OW 2345   3.327   2.236   2.257  0.5137  0.4284 -0.3986
  701SOL    HW1 2346   3.295   2.316   2.299 -0.7888  0.7142 -1.8461
  701SOL    HW2 2347   3.412   2.220   2.297  1.1023  2.8914 -0.5213
  702SOL     OW 2348   1.408   2.512   2.912 -0.5292  0.1430 -0.0749
  702SOL    HW1 2349   1.479   2.482   2.855 -1.1827 -0.6013 -0.5109
  702SOL    HW2 2350   1.349   2.560   2.854 -1.2080 -0.6310 -0.0446
  703SOL     OW 2351   4.214   3.627   0.796  0.1428 -0.1451 -0.6073
  703SOL    HW1 2352   4.129   3.586   0.784 -0.5380  0.5815  1.3032
  703SOL    HW2 2353   4.277   3.560   0.770 -0.9811 -1.0381 -1.1266
  704SOL     OW 2354   1.746   4.208   0.957  0.0371  1.0317 -0.2263
  704SOL    HW1 2355   1.817   4.151   0.988  0.6782  1.2752 -1.2116
  704SOL    HW2 2356   1.668   4.152   0.958  0.0904  0.9396  1.4715
  705SOL     OW 2357   2.351   0.020   1.400  0.2210 -0.0063  0.0776
  705SOL    HW1 2358   2.350   0.113   1.380 -0.5051 -0.1595 -0.6433
  705SOL    HW2 2359   2.444  -0.002   1.403  0.4025  0.7890  0.5168
  706SOL     OW 2360   0.158   2.101   0.861  0.1961  0.9710  0.0516
  706SOL    HW1 2361   0.106   2.162   0.914 -1.2023  1.2559 -1.5740
  706SOL    HW2 2362   0.181   2.151   0.782 -0.0756 -0.2669 -0.8382
  707SOL     OW 2363   1.822   0.110   0.476  0.1076  0.4496  0.0152
  707SOL    HW1 2364   1.827   0.115   0.571 -0.0208 -0.5855  0.0878
  707SOL    HW2 2365   1.889   0.172   0.445  1.2360 -0.3468  0.7889
  708SOL     OW 2366   0.150   1.193   1.293  0.6048  0.2749 -0.2440
  708SOL    HW1 2367   0.136   1.103   1.323  0.3117  0.6601  0.8212
  708SOL    HW2 2368   0.244   1.207   1.303  0.3919  0.6939  1.4189
  709SOL     OW 2369   0.646   1.689   2.067  0.2416  0.2128 -1.0057
  709SOL    HW1 2370   0.565   1.647   2.039 -1.2924  1.5111  1.1078
  709SOL    HW2 2371   0.709   1.618   2.074 -0.7480 -0.8648 -2.5719
  710SOL     OW 2372   2.839   2.773   2.462 -0.3271  0.3500  0.4789
  710SOL    HW1 2373   2.789   2.699   2.427  0.0299  0.4379 -0.2351
  710SOL    HW2 2374   2.827   2.767   2.557  1.1654 -1.7065  0.6105
  711SOL     OW 2375   3.038   2.841   2.292  0.1896  0.1106 -0.5882
  711SOL    HW1 2376   2.961   2.821   2.345  0.1213 -0.0052 -0.7281
  711SOL    HW2 2377   3.066   2.927   2.322  0.4598 -0.1754 -0.0052
  712SOL     OW 2378   4.224   2.772   2.884  0.1599  0.2676 -0.0316
  712SOL    HW1 2379   4.224   2.808   2.973  1.7514  0.9088 -0.2625
  712SOL    HW2 2380   4.294   2.819   2.839 -1.3863  0.8290 -2.0133
  713SOL     OW 2381   1.723   3.173   3.084 -0.1386 -0.3806 -0.1316
  713SOL    HW1 2382   1.653   3.196   3.146 -0.2697  0.6616 -0.6483
  713SOL    HW2 2383   1.750   3.256   3.047 -0.8298 -1.0539 -2.3116
  714SOL     OW 2384   0.315   2.992   2.049  0.2465  0.3517 -0.4319
  714SOL    HW1 2385   0.235   3.043   2.036 -0.9033 -1.4055 -0.5186
  714SOL    HW2 2386   0.379   3.032   1.990 -0.9122  1.0219 -1.2667
  715SOL     OW 2387   2.769   0.026   0.075  0.6124 -0.0573 -0.3231
  715SOL    HW1 2388   2.821   0.106   0.085 -2.1984  1.7195  1.2079
  715SOL    HW2 2389   2.801  -0.032   0.143  2.4951 -0.2156 -1.2694
  716SOL     OW 2390   2.022   2.314   1.859 -0.3234  0.3699  0.2486
  716SOL    HW1 2391   2.077   2.392   1.854  1.0609 -0.6614 -2.2953
  716SOL    HW2 2392   1.939   2.342   1.821 -1.1187  1.4576  2.5461
  717SOL     OW 2393   3.145   0.716   0.524  1.1279  0.1442  0.8216
  717SOL    HW1 2394   3.191   0.753   0.449  0.6064 -1.6081 -0.4308
  717SOL    HW2 2395   3.210   0.659   0.567  0.7781 -0.6659  0.3037
  718SOL     OW 2396   1.703   2.424   2.044 -0.0655  0.3212  0.2131
  718SOL    HW1 2397   1.772   2.377   2.092  1.1881  0.1196 -1.6806
  718SOL    HW2 2398   1.639   2.357   2.022  0.0666  0.1378  0.3820
  719SOL     OW 2399   3.679   1.909   0.124 -0.2338 -0.1724  0.4295
  719SOL    HW1 2400   3.671   1.819   0.091  1.2150 -0.4262  0.7257
  719SOL    HW2 2401   3.767   1.936   0.100 -0.4853  0.9954  0.7885
  720SOL     OW 2402   0.015   1.284   2.585  0.0147  0.1428  0.0279
  720SOL    HW1 2403   0.079   1.220   2.555 -0.2999  0.2924 -1.0025
  720SOL    HW2 2404  -0.062   1.270   2.529 -0.1583  1.2305 -0.0434
  721SOL     OW 2405   0.547   1.966   2.028 -0.5056  0.5999 -0.3586
  721SOL    HW1 2406   0.574   1.875   2.035  1.7492  1.3208  2.2860
  721SOL    HW2 2407   0.549   1.985   1.935  0.8442 -1.5383 -0.8302
  722SOL     OW 2408   0.190   2.745   2.045  0.9586  0.0512  0.3918
  722SOL    HW1 2409   0.231   2.830   2.036  0.8871  0.1027  0.5586
  722SOL    HW2 2410   0.257   2.689   2.085  1.9727 -0.6895 -2.1095
  723SOL     OW 2411   0.731   3.264   2.546  0.2397  0.4469  0.1211
  723SOL    HW1 2412   0.666   3.264   2.476  1.1962 -0.7916 -0.7866
  723SOL    HW2 2413   0.787   3.339   2.527  0.4871  0.1237 -0.4306
  724SOL     OW 2414   4.048   4.266   2.888 -0.3486 -0.5957 -0.0594
  724SOL    HW1 2415   4.071   4.349   2.845 -0.3780 -0.2838  0.5098
  724SOL    HW2 2416   4.122   4.209   2.871  0.1980 -0.0759  0.4987
  725SOL     OW 2417   1.766   1.688   0.816  0.2134  0.7347 -0.1636
  725SOL    HW1 2418   1.723   1.769   0.789  1.0681  1.2402 -0.0454
  725SOL    HW2 2419   1.812   1.658   0.738 -0.0830  0.3728 -0.1991
  726SOL     OW 2420   0.438   3.138   1.726 -0.0030 -0.0673  0.3422
  726SOL    HW1 2421   0.517   3.146   1.672 -0.6861 -2.9955 -1.3115
  726SOL    HW2 2422   0.470   3.114   1.813  0.9887 -1.3632 -0.3469
  727SOL     OW 2423   1.874   1.422   1.117  0.4326 -0.4748  0.4158
  727SOL    HW1 2424   1.813   1.496   1.112  0.2789 -0.6901 -2.2295
  727SOL    HW2 2425   1.818   1.345   1.121  0.5184 -0.6220 -0.9616
  728SOL     OW 2426   2.308   1.513   1.166 -0.3515  0.0861 -0.5464
  728SOL    HW1 2427   2.300   1.561   1.083 -3.5746 -1.0535 -1.0537
  728SOL    HW2 2428   2.320   1.581   1.232  2.0753  1.0390 -1.8601
  729SOL     OW 2429   0.213   0.714   2.560  0.2008  0.2994  0.1069
  729SOL    HW1 2430   0.290   0.735   2.613 -0.3611 -1.7502  1.8876
  729SOL    HW2 2431   0.250   0.676   2.479  1.0688  0.7031  0.3043
  730SOL     OW 2432   3.198   2.531   2.880  0.2795 -0.0070  0.7715
  730SOL    HW1 2433   3.119   2.483   2.853 -0.4920  1.2687  0.6907
  730SOL    HW2 2434   3.245   2.546   2.799 -0.8785  1.7792  0.3733
  731SOL     OW 2435   1.983   4.297   2.126 -0.4613 -0.3519 -0.5568
  731SOL    HW1 2436   1.911   4.294   2.190 -0.3491  0.0906 -0.3999
  731SOL    HW2 2437   2.062   4.288   2.179 -0.2862  1.5615 -0.4274
  732SOL     OW 2438   1.296   2.261   2.410 -0.0854  0.0892  0.1956
  732SOL    HW1 2439   1.235   2.307   2.469  0.1946 -0.5221  0.9732
  732SOL    HW2 2440   1.239   2.220   2.345 -0.4590  0.0896  0.5156
  733SOL     OW 2441   4.317   3.121   2.711 -0.5463  0.7361  0.0736
  733SOL    HW1 2442   4.276   3.205   2.687 -1.0434 -0.2787 -3.0936
  733SOL    HW2 2443   4.327   3.075   2.628  3.4981 -0.7428  1.1241
  734SOL     OW 2444   3.533   3.294   2.301 -0.4621 -0.2282  0.1276
  734SOL    HW1 2445   3.510   3.203   2.284  0.1575 -0.0995 -1.7155
  734SOL    HW2 2446   3.611   3.290   2.356 -0.4974 -0.8163  0.1320
  735SOL     OW 2447   2.938   1.340   0.292  0.2324 -0.1391  0.0415
  735SOL    HW1 2448   2.925   1.245   0.296 -0.8732  0.0219  0.5597
  735SOL    HW2 2449   2.862   1.377   0.336 -0.0293  1.0452 -1.3253
  736SOL     OW 2450   0.125   3.035   1.694  0.4765 -0.4581  0.0156
  736SOL    HW1 2451   0.173   2.987   1.627 -0.0327  1.2816 -1.6868
  736SOL    HW2 2452   0.182   3.108   1.718  0.4505 -0.7913  1.1552
  737SOL     OW 2453   3.279   3.415   2.683  0.4307  0.1557  0.1390
  737SOL    HW1 2454   3.354   3.405   2.624 -0.0193  2.3192 -0.8889
  737SOL    HW2 2455   3.287   3.341   2.744  2.3741 -0.6843 -1.0247
  738SOL     OW 2456   0.243   3.308   1.812  0.3821 -0.0378  0.1682
  738SOL    HW1 2457   0.312   3.261   1.766 -0.4573  0.1834 -1.4005
  738SOL    HW2 2458   0.238   3.393   1.768 -2.5035 -0.9136 -1.5207
  739SOL     OW 2459   2.665   1.181   0.965 -0.3963  0.4506  0.0148
  739SOL    HW1 2460   2.744   1.205   0.917  0.1552  0.0469  0.6943
  739SOL    HW2 2461   2.646   1.258   1.019 -0.0842  0.3150  0.3267
  740SOL     OW 2462   2.632   1.429   0.708 -0.4585 -0.0583  0.1565
  740SOL    HW1 2463   2.544   1.421   0.744  0.0959 -0.3658  1.4846
  740SOL    HW2 2464   2.683   1.363   0.754  1.0023  1.6464  1.0950
  741SOL     OW 2465   2.549   3.905   0.651  1.1410  0.3031  0.2638
  741SOL    HW1 2466   2.577   3.814   0.661  0.5084 -0.0017 -0.5583
  741SOL    HW2 2467   2.516   3.910   0.561  0.5910  1.1875  0.4981
  742SOL     OW 2468   1.169   3.889   0.793  0.0963 -0.2667 -0.3920
  742SOL    HW1 2469   1.097   3.889   0.731 -0.9376  0.5876  0.7371
  742SOL    HW2 2470   1.232   3.951   0.756  0.3275 -1.1276 -1.4611
  743SOL     OW 2471   0.162   2.642   2.916 -0.6991  0.6009  0.1364
  743SOL    HW1 2472   0.127   2.722   2.875 -0.7213 -0.0739 -1.2405
  743SOL    HW2 2473   0.093   2.614   2.976 -2.5093 -0.4960 -2.2515
  744SOL     OW 2474   4.123   2.020   1.931  0.5416  0.5844  0.0965
  744SOL    HW1 2475   4.156   2.002   1.842  1.2146 -0.0730  0.4702
  744SOL    HW2 2476   4.028   2.023   1.920  0.4280 -1.8385 -0.2778
  745SOL     OW 2477   1.137   1.292   1.011 -0.0774 -0.0701 -0.3245
  745SOL    HW1 2478   1.113   1.210   1.054 -0.9020 -0.0508 -0.7238
  745SOL    HW2 2479   1.063   1.311   0.953  0.5448  0.4474 -0.9649
  746SOL     OW 2480   2.633   1.636  -0.001 -0.2777  0.2904 -0.1925
  746SOL    HW1 2481   2.604   1.721   0.035 -0.9533 -0.3987  0.9798
  746SOL    HW2 2482   2.708   1.612   0.053 -1.4309 -0.8596  0.9667
  747SOL     OW 2483   1.861   3.704   2.786  0.6232 -0.5789 -0.3634
  747SOL    HW1 2484   1.860   3.740   2.697 -1.6663  0.4788  0.0333
  747SOL    HW2 2485   1.798   3.632   2.783  1.6950 -1.5587  0.0406
  748SOL     OW 2486   1.641   2.707   0.417 -0.1849  0.5117  0.0309
  748SOL    HW1 2487   1.585   2.675   0.488  1.3624  0.1272  1.1192
  748SOL    HW2 2488   1.724   2.727   0.459 -0.0779  3.0144 -1.1915
  749SOL     OW 2489   1.627   1.757   2.268 -0.1582  0.6537 -0.6106
  749SOL    HW1 2490   1.599   1.849   2.267 -0.2390  0.6814  1.5490
  749SOL    HW2 2491   1.548   1.708   2.243 -1.1128  0.9885  1.5770
  750SOL     OW 2492   2.096   0.097   1.564 -0.4764 -0.4381 -0.3522
  750SOL    HW1 2493   2.165   0.068   1.623 -0.4503  0.4255  0.0557
  750SOL    HW2 2494   2.023   0.038   1.582 -0.5425 -0.0616  0.7041
  751SOL     OW 2495   2.041   0.099   1.053  0.2520 -0.4541  0.3131
  751SOL    HW1 2496   1.950   0.081   1.077  0.3107  0.0691  0.9583
  751SOL    HW2 2497   2.062   0.182   1.097  1.0723 -0.6240  0.2642
  752SOL     OW 2498   3.942   2.713   0.750 -0.4863  0.7132  0.1562
  752SOL    HW1 2499   3.896   2.727   0.667 -2.3934 -0.9106  0.8616
  752SOL    HW2 2500   4.023   2.669   0.724 -0.2799  1.6576 -0.9374
  753SOL     OW 2501   2.190   4.164   2.660 -0.0739 -0.1095 -0.7705
  753SOL    HW1 2502   2.283   4.189   2.663  0.1850 -1.0158 -1.0995
  753SOL    HW2 2503   2.145   4.239   2.700  0.9288 -0.3559  0.9508
  754SOL     OW 2504   2.153   2.971   2.954 -0.5222 -0.5596 -0.3346
  754SOL    HW1 2505   2.235   3.020   2.948 -0.9461  0.4601  1.6082
  754SOL    HW2 2506   2.122   2.966   2.863  1.6708 -0.9975 -1.1255
  755SOL     OW 2507   3.378   0.278   0.330 -0.6604  0.1563 -0.2842
  755SOL    HW1 2508   3.291   0.299   0.296 -0.0956 -0.2407 -2.0370
  755SOL    HW2 2509   3.360   0.230   0.411 -2.0153  3.5755  1.6624
  756SOL     OW 2510   0.813   1.477   2.322 -0.0337  0.3253 -0.4536
  756SOL    HW1 2511   0.857   1.526   2.252  0.0473  0.2223 -0.4748
  756SOL    HW2 2512   0.872   1.482   2.396 -1.3889  2.9278  0.5696
  757SOL     OW 2513   2.872   1.995   2.405 -0.0456 -0.4815 -0.9703
  757SOL    HW1 2514   2.887   2.089   2.394  0.8409 -0.3866  0.7408
  757SOL    HW2 2515   2.786   1.989   2.447  1.1196 -0.2138  1.6052
  758SOL     OW 2516   0.995   0.398   2.595  0.3536 -0.0853  0.1525
  758SOL    HW1 2517   1.069   0.351   2.559  0.6966  0.8223 -0.3439
  758SOL    HW2 2518   0.947   0.431   2.519  1.4641  2.4384  0.4191
  759SOL     OW 2519   1.565   4.259   0.692 -0.1901 -0.0871 -0.2336
  759SOL    HW1 2520   1.651   4.222   0.671 -0.6408 -1.1129 -0.3203
  759SOL    HW2 2521   1.584   4.349   0.721  0.8727 -0.1911 -0.5702
  760SOL     OW 2522   0.690   0.586   1.997  0.1398  0.1408 -0.0513
  760SOL    HW1 2523   0.654   0.651   2.057  0.3526  1.8131 -1.6418
  760SOL    HW2 2524   0.612   0.545   1.958 -0.1004  1.8408 -1.4826
  761SOL     OW 2525   3.330   0.352   0.788  0.3455 -0.5470  0.3442
  761SOL    HW1 2526   3.419   0.334   0.818  0.7178 -0.8825 -0.8837
  761SOL    HW2 2527   3.274   0.301   0.846  1.1420 -2.6326 -0.6260
  762SOL     OW 2528   2.039   0.400   1.645  0.2153  0.0130 -0.2331
  762SOL    HW1 2529   2.067   0.311   1.665  1.8976 -0.2077 -3.0149
  762SOL    HW2 2530   1.969   0.389   1.580  0.6527  0.6896 -0.8398
  763SOL     OW 2531   4.222   0.915   0.735  0.6027 -0.0861 -0.2032
  763SOL    HW1 2532   4.140   0.966   0.728 -0.0314 -1.1806 -1.0549
  763SOL    HW2 2533   4.247   0.923   0.827 -0.6221  0.0321  0.1423
  764SOL     OW 2534   0.389   1.915   1.507 -0.0033  0.6247 -0.1629
  764SOL    HW1 2535   0.395   1.824   1.477  0.7230 -0.2825  2.4655
  764SOL    HW2 2536   0.428   1.966   1.437 -0.2956 -1.0933 -1.6493
  765SOL     OW 2537   2.662   0.731   1.141  0.0872 -0.0377 -0.1994
  765SOL    HW1 2538   2.747   0.739   1.096 -0.6808 -0.7184 -1.8716
  765SOL    HW2 2539   2.610   0.802   1.104  0.0147  0.6184  1.1100
  766SOL     OW 2540   4.032   1.103   0.704  0.2158 -0.5082 -0.0138
  766SOL    HW1 2541   4.026   1.121   0.610  2.0387  0.5692  0.0302
  766SOL    HW2 2542   3.981   1.173   0.745 -2.2016 -2.0407 -0.1892
  767SOL     OW 2543   4.029   2.691   2.500  0.7529  0.4815 -0.3152
  767SOL    HW1 2544   3.941   2.709   2.468  0.6064 -0.8700 -0.7100
  767SOL    HW2 2545   4.084   2.689   2.422  0.7726 -0.6835 -0.2812
  768SOL     OW 2546   2.985   0.092   0.617  0.4715 -0.1242  0.0823
  768SOL    HW1 2547   2.899   0.126   0.589  0.4696 -0.2371 -0.0527
  768SOL    HW2 2548   2.968   0.000   0.638  0.2036  0.2672  1.6900
  769SOL     OW 2549   0.063   2.969   1.105 -0.3028  0.1641  0.0418
  769SOL    HW1 2550   0.115   2.891   1.088  0.7273  1.1316 -1.5182
  769SOL    HW2 2551  -0.025   2.946   1.078 -0.1846 -0.7009  0.3619
  770SOL     OW 2552   2.844   1.981   2.836  0.1949 -0.0366 -0.1562
  770SOL    HW1 2553   2.839   2.059   2.780 -0.0216 -0.9753 -1.5113
  770SOL    HW2 2554   2.818   2.011   2.922 -0.4042  1.2847 -0.7734
  771SOL     OW 2555   1.383   0.356   0.682 -0.3797  0.2166 -0.1831
  771SOL    HW1 2556   1.437   0.375   0.605  0.4942  0.9735  0.6001
  771SOL    HW2 2557   1.321   0.428   0.686  1.7895  2.1429  1.7550
  772SOL     OW 2558   1.074   2.182   2.185 -0.1950 -0.0539 -0.0080
  772SOL    HW1 2559   1.042   2.172   2.095 -0.6600 -0.0742  0.1574
  772SOL    HW2 2560   1.022   2.253   2.222 -1.7587 -1.6511  1.0275
  773SOL     OW 2561   0.655   3.954   2.741  0.2045 -0.3477  0.3494
  773SOL    HW1 2562   0.693   4.026   2.692  0.5440 -1.0975 -0.5183
  773SOL    HW2 2563   0.693   3.875   2.702 -1.0994 -1.0555  0.4433
  774SOL     OW 2564   3.457   3.870   2.908  0.0540 -0.0446 -0.1845
  774SOL    HW1 2565   3.488   3.960   2.924 -0.3819  0.3660 -1.5189
  774SOL    HW2 2566   3.431   3.870   2.816  0.6378 -1.7298 -0.3809
  775SOL     OW 2567   0.398   3.431   2.943  0.1935  0.1736  0.1643
  775SOL    HW1 2568   0.361   3.357   2.990 -2.1003  0.9554 -0.2666
  775SOL    HW2 2569   0.439   3.392   2.865 -0.3362 -0.6972  0.3063
  776SOL     OW 2570   2.883   0.776   2.118 -0.3396  0.1672  0.4493
  776SOL    HW1 2571   2.900   0.778   2.212 -1.3419  0.1832  0.6470
  776SOL    HW2 2572   2.835   0.857   2.101  1.3542  1.0417 -0.4169
  777SOL     OW 2573   1.249   2.375   3.105 -0.0964  0.2352 -0.0372
  777SOL    HW1 2574   1.322   2.411   3.054 -0.5806  0.2942 -0.7017
  777SOL    HW2 2575   1.283   2.292   3.140  1.0894  1.3491  1.6340
  778SOL     OW 2576   3.945   0.598   0.844 -0.0123  0.2008  0.2521
  778SOL    HW1 2577   4.029   0.628   0.809 -0.1381  0.3601  0.0849
  778SOL    HW2 2578   3.886   0.597   0.769 -0.2453  0.4058  0.4272
  779SOL     OW 2579   0.543   1.010   0.994 -0.5242 -0.1468  0.1810
  779SOL    HW1 2580   0.461   1.051   1.021  0.1082  0.2404  1.6017
  779SOL    HW2 2581   0.591   1.079   0.948 -0.4193  0.0350  0.5626
  780SOL     OW 2582   0.812   0.159   2.461 -0.2077  0.6069  0.0842
  780SOL    HW1 2583   0.813   0.253   2.443  0.2865  0.6154  0.1562
  780SOL    HW2 2584   0.897   0.127   2.432 -0.8588 -0.0592 -1.1471
  781SOL     OW 2585   0.076   3.870   0.795  0.3881  0.5244 -0.4268
  781SOL    HW1 2586   0.128   3.860   0.716 -0.5076  2.8047 -1.3955
  781SOL    HW2 2587  -0.015   3.873   0.764 -0.0321  0.7239  0.7738
  782SOL     OW 2588   2.143   2.573   1.847 -0.1514  0.4000 -0.4180
  782SOL    HW1 2589   2.225   2.548   1.890  0.0040 -1.5457 -1.6971
  782SOL    HW2 2590   2.094   2.619   1.915  1.4626  0.4871  0.7679
  783SOL     OW 2591   1.789   3.019   2.230 -0.4905  0.2707  0.0365
  783SOL    HW1 2592   1.793   2.928   2.257 -2.0138 -0.0156 -0.6354
  783SOL    HW2 2593   1.850   3.025   2.156  1.2477  0.3398  1.3866
  784SOL     OW 2594   4.401   1.578   2.361 -0.1770  0.1803  0.5006
  784SOL    HW1 2595   4.323   1.589   2.307  1.3694  0.9462 -1.7060
  784SOL    HW2 2596   4.382   1.627   2.441 -0.7566  3.3047 -1.3740
  785SOL     OW 2597   0.915   2.982   1.882 -0.2517  0.3332  0.3224
  785SOL    HW1 2598   0.827   2.995   1.847 -0.5940 -0.4154  0.8730
  785SOL    HW2 2599   0.960   2.928   1.817 -1.1435 -1.7481  1.3414
  786SOL     OW 2600   4.006   4.315   0.376 -0.1650 -0.9117 -0.5484
  786SOL    HW1 2601   3.937   4.374   0.347 -1.3185 -1.5890  0.7111
  786SOL    HW2 2602   4.025   4.341   0.466  0.2114 -1.6392 -0.4030
  787SOL     OW 2603   4.354   3.013   0.299  0.1473  0.0354 -0.4841
  787SOL    HW1 2604   4.425   2.950   0.284 -1.2469 -1.6723 -0.2063
  787SOL    HW2 2605   4.390   3.097   0.270  2.5589 -0.6133  0.4137
  788SOL     OW 2606   1.636   0.796   0.914 -0.2865 -0.1419  0.2681
  788SOL    HW1 2607   1.641   0.723   0.852  0.7582 -0.0540  0.2345
  788SOL    HW2 2608   1.567   0.853   0.878  0.4855  0.0489 -0.9898
  789SOL     OW 2609   2.147   2.031   0.800 -0.4391  0.2738  0.1996
  789SOL    HW1 2610   2.182   2.094   0.864 -0.5383  0.2714  0.2561
  789SOL    HW2 2611   2.152   2.077   0.716  0.5211 -0.0450  0.0712
  790SOL     OW 2612   1.386   3.882   2.826 -0.0611  0.0280 -0.1112
  790SOL    HW1 2613   1.293   3.880   2.801 -0.5202 -1.7298  1.4992
  790SOL    HW2 2614   1.418   3.966   2.793 -2.2049  0.6664 -0.7249
  791SOL     OW 2615   2.982   0.791   0.015  0.0726  0.6882  0.2047
  791SOL    HW1 2616   2.895   0.792  -0.026 -0.4105  0.4331  1.1823
  791SOL    HW2 2617   2.964   0.778   0.108  1.2166 -0.8050  0.2600
  792SOL     OW 2618   1.396   3.248   2.533  0.2558  0.6327 -0.5580
  792SOL    HW1 2619   1.447   3.233   2.454  0.1501 -1.0262 -0.3483
  792SOL    HW2 2620   1.313   3.203   2.517  0.9080 -1.3232  1.1574
  793SOL     OW 2621   4.061   3.961   1.160  0.4150 -0.2864 -0.2846
  793SOL    HW1 2622   4.085   3.877   1.120 -0.0898 -1.0050  0.8916
  793SOL    HW2 2623   4.128   3.975   1.226  0.8301  0.5452 -0.8645
  794SOL     OW 2624   0.917   1.699   2.865  0.0285 -0.2141 -0.1291
  794SOL    HW1 2625   0.982   1.748   2.915  0.0232 -0.0339 -0.2953
  794SOL    HW2 2626   0.885   1.762   2.801 -1.9990  0.4209  1.4214
  795SOL     OW 2627   1.624   2.058   1.876 -0.0522 -0.1148 -0.2531
  795SOL    HW1 2628   1.668   2.049   1.960  1.0433  0.6771 -0.7099
  795SOL    HW2 2629   1.585   1.972   1.859 -0.0097 -0.3685  0.9031
  796SOL     OW 2630   1.090   0.535   1.309 -0.6970 -0.4053  0.3686
  796SOL    HW1 2631   1.146   0.515   1.234 -4.1021 -0.3271 -2.4509
  796SOL    HW2 2632   1.149   0.533   1.384  2.9148 -0.7877 -2.2170
  797SOL     OW 2633   1.048   1.612   0.865  0.0324 -0.2744 -0.0241
  797SOL    HW1 2634   1.131   1.568   0.885  0.2792  0.2411  0.1047
  797SOL    HW2 2635   0.990   1.542   0.835  0.5366 -0.6269 -0.1853
  798SOL     OW 2636   2.029   0.047   2.506  0.2483 -0.4557 -0.0968
  798SOL    HW1 2637   2.060  -0.030   2.459  1.6660  0.8778 -1.4890
  798SOL    HW2 2638   1.949   0.073   2.460 -1.3511 -2.1460  1.5905
  799SOL     OW 2639   2.512   2.113   2.697 -0.2439 -0.0064  0.0679
  799SOL    HW1 2640   2.564   2.191   2.715 -0.2644  0.5203 -1.9245
  799SOL    HW2 2641   2.422   2.138   2.720  0.0943 -0.3300  1.8424
  800SOL     OW 2642   0.389   3.548   0.187  0.1490  0.1172  0.0685
  800SOL    HW1 2643   0.417   3.607   0.256 -1.8349  0.5470  0.5548
  800SOL    HW2 2644   0.306   3.511   0.218 -1.0090  0.5991 -2.2021
  801SOL     OW 2645   4.119   2.409   2.143  0.2918  1.1644 -0.0498
  801SOL    HW1 2646   4.045   2.349   2.145 -0.6951  2.3674  1.2195
  801SOL    HW2 2647   4.195   2.354   2.124 -0.5792 -0.4785  1.0869
  802SOL     OW 2648   4.265   0.922   1.018  0.7093  0.0043  0.0581
  802SOL    HW1 2649   4.288   1.009   1.049  2.6348 -0.9273  1.4781
  802SOL    HW2 2650   4.224   0.879   1.093  0.3655 -0.5269 -0.4198
  803SOL     OW 2651   2.363   2.414   1.215  0.7536 -0.4978  0.3202
  803SOL    HW1 2652   2.334   2.501   1.241 -0.7173 -0.2205 -1.9243
  803SOL    HW2 2653   2.290   2.356   1.240 -0.3097 -0.3439 -2.0964
  804SOL     OW 2654   0.607   3.841   1.049  0.4260 -0.5835  0.3917
  804SOL    HW1 2655   0.679   3.802   1.099  0.1936 -1.7419 -0.1352
  804SOL    HW2 2656   0.556   3.766   1.018  0.1575  0.1309 -0.9754
  805SOL     OW 2657   4.392   4.245   1.300 -0.0865  0.3592  0.3061
  805SOL    HW1 2658   4.379   4.152   1.281 -0.7536  0.1529  1.6469
  805SOL    HW2 2659   4.304   4.280   1.312  0.2139  0.5516  2.3980
  806SOL     OW 2660   4.165   3.274   0.945 -0.3087 -0.5377 -0.1896
  806SOL    HW1 2661   4.179   3.231   1.030 -0.2077 -0.3404 -0.1062
  806SOL    HW2 2662   4.252   3.306   0.920 -0.3849 -0.3758 -0.2478
  807SOL     OW 2663   1.567   3.936   2.545 -0.5041 -0.3358  0.7197
  807SOL    HW1 2664   1.585   4.005   2.609  1.7323  0.6867 -0.8453
  807SOL    HW2 2665   1.508   3.978   2.482 -0.7275 -0.5140  0.8108
  808SOL     OW 2666   2.593   4.360   0.709 -0.2757  0.3128  0.1986
  808SOL    HW1 2667   2.571   4.332   0.621 -0.5732  0.7050  0.1461
  808SOL    HW2 2668   2.514   4.343   0.760  0.2570 -0.9425  0.6354
  809SOL     OW 2669   0.983   2.623   2.045  0.2934  0.3192  0.3184
  809SOL    HW1 2670   0.932   2.631   1.965  0.5649  1.7740  0.2587
  809SOL    HW2 2671   0.967   2.705   2.092  0.4513 -0.3335  1.5723
  810SOL     OW 2672   0.212   0.932   2.194 -0.3471 -0.1228 -0.5378
  810SOL    HW1 2673   0.209   0.865   2.125  0.8230  1.8186 -2.6195
  810SOL    HW2 2674   0.150   0.998   2.165  1.3203  1.4833 -0.6552
  811SOL     OW 2675   0.548   3.764   1.911 -0.0284 -0.3749  0.1567
  811SOL    HW1 2676   0.610   3.835   1.926 -1.9830  0.9452  2.7349
  811SOL    HW2 2677   0.577   3.694   1.970 -0.2756 -0.2601  0.4115
  812SOL     OW 2678   1.724   3.214   0.592 -0.5625  0.2903 -0.3018
  812SOL    HW1 2679   1.740   3.305   0.567 -1.7684 -0.1690 -3.1537
  812SOL    HW2 2680   1.640   3.192   0.552 -0.7664 -1.8374  1.0958
  813SOL     OW 2681   0.221   1.209   1.668  0.3137 -0.6594 -0.1385
  813SOL    HW1 2682   0.228   1.131   1.723 -0.4746  0.3971  1.5323
  813SOL    HW2 2683   0.312   1.237   1.654  0.6319 -2.1267 -1.1777
  814SOL     OW 2684   3.054   2.007   1.508 -0.0751  0.3597 -0.6284
  814SOL    HW1 2685   2.966   1.972   1.497 -0.2875  0.3482  0.8906
  814SOL    HW2 2686   3.041   2.101   1.520  0.2390  0.5440 -1.6127
  815SOL     OW 2687   0.897   0.574   0.155  0.2740 -0.1846 -0.0522
  815SOL    HW1 2688   0.924   0.482   0.152  0.2818 -0.2273  1.0181
  815SOL    HW2 2689   0.919   0.608   0.068  0.4816 -1.1319 -0.3841
  816SOL     OW 2690   4.398   3.670   0.132  0.3788  0.7278  0.8639
  816SOL    HW1 2691   4.453   3.737   0.092  0.1185 -0.2115 -1.1871
  816SOL    HW2 2692   4.325   3.718   0.170  1.9606  1.8898  2.6659
  817SOL     OW 2693   0.829   3.460   2.334 -0.5115  0.5294 -0.3463
  817SOL    HW1 2694   0.790   3.522   2.395  0.4751  1.2835 -0.4547
  817SOL    HW2 2695   0.877   3.515   2.272  0.2718 -0.3413 -0.5302
  818SOL     OW 2696   0.322   1.970   2.533  0.2338  0.7775  0.0952
  818SOL    HW1 2697   0.268   1.921   2.471  0.4372  1.0257 -0.2809
  818SOL    HW2 2698   0.334   1.910   2.606 -0.3974  0.6491  0.1056
  819SOL     OW 2699   1.302   2.687   3.120 -0.6995  0.0884  0.2633
  819SOL    HW1 2700   1.290   2.673   3.026  0.8627  0.6673 -0.0496
  819SOL    HW2 2701   1.298   2.599   3.158  3.4745 -0.9009 -0.9824
  820SOL     OW 2702   1.142   0.503   2.288 -0.1696  0.0629 -0.0535
  820SOL    HW1 2703   1.091   0.508   2.207 -0.9158 -1.5356  0.2903
  820SOL    HW2 2704   1.134   0.590   2.327 -1.7455  0.1664 -0.5438
  821SOL     OW 2705   2.981   1.492   2.421  0.0815  0.0499  1.1249
  821SOL    HW1 2706   2.914   1.429   2.395  0.1031  0.4040  0.1669
  821SOL    HW2 2707   2.934   1.576   2.426  0.3368  0.2015  0.9978
  822SOL     OW 2708   1.055   0.719   1.715 -0.5999 -0.1836  0.2832
  822SOL    HW1 2709   1.138   0.722   1.666 -1.2248  1.7461 -0.7742
  822SOL    HW2 2710   1.082   0.721   1.807  0.5428 -1.0280 -0.0027
  823SOL     OW 2711   1.795   3.780   1.600 -1.1043 -0.4598 -0.1883
  823SOL    HW1 2712   1.764   3.711   1.659  2.3053 -0.4449  1.8685
  823SOL    HW2 2713   1.725   3.845   1.602 -1.9111 -1.2559  2.5046
  824SOL     OW 2714   0.207   2.892   0.825 -0.0998 -0.3896  0.5051
  824SOL    HW1 2715   0.295   2.868   0.854 -0.1385 -0.0858  0.8866
  824SOL    HW2 2716   0.220   2.957   0.757  0.0153 -1.6643 -0.7224
  825SOL     OW 2717   0.171   4.254   1.544  0.3088 -0.5175 -0.5159
  825SOL    HW1 2718   0.258   4.225   1.516  0.7861 -0.1645  0.5177
  825SOL    HW2 2719   0.117   4.249   1.466  1.4765  0.1111 -1.4001
  826SOL     OW 2720   0.965   0.601   0.437  0.5000 -0.0726  0.5795
  826SOL    HW1 2721   0.900   0.622   0.504 -0.1133 -0.8481  0.2446
  826SOL    HW2 2722   0.919   0.614   0.354  0.5688 -1.2138  0.3476
  827SOL     OW 2723   4.121   2.545   2.814 -0.7103  0.1902 -0.3053
  827SOL    HW1 2724   4.164   2.628   2.834  2.1089 -1.4699  1.1344
  827SOL    HW2 2725   4.048   2.541   2.876  0.2874  0.7602  0.9517
  828SOL     OW 2726   0.894   4.235   0.175  0.4181  0.2792  0.1553
  828SOL    HW1 2727   0.958   4.220   0.244 -0.4559  0.7784  1.1017
  828SOL    HW2 2728   0.934   4.197   0.096  1.5096 -0.1309  0.8844
  829SOL     OW 2729   2.482   1.072   0.454  0.0948  0.0583  0.2144
  829SOL    HW1 2730   2.498   1.145   0.395  1.8108 -0.3075  0.1571
  829SOL    HW2 2731   2.563   1.065   0.506 -0.0482 -1.7345  0.2670
  830SOL     OW 2732   0.575   1.580   2.946 -0.0059 -0.4133  0.5704
  830SOL    HW1 2733   0.510   1.535   2.892  1.4310  0.0051 -1.6541
  830SOL    HW2 2734   0.610   1.648   2.888  2.1089 -0.3674  1.8139
  831SOL     OW 2735   0.440   1.267   1.377 -0.0278  0.2714 -0.1861
  831SOL    HW1 2736   0.434   1.349   1.427  0.0643  1.5483 -2.1397
  831SOL    HW2 2737   0.483   1.206   1.436  0.3544  1.7778  1.1743
  832SOL     OW 2738   4.001  -0.004   0.625 -0.3842  0.2673 -0.2368
  832SOL    HW1 2739   3.953   0.078   0.616  0.6760  1.0715  1.0764
  832SOL    HW2 2740   4.061   0.011   0.698 -1.2609 -2.2258  1.1052
  833SOL     OW 2741   4.194   2.670   2.267  0.5723 -0.2185  0.8966
  833SOL    HW1 2742   4.202   2.730   2.193  1.6138 -1.4952 -0.0826
  833SOL    HW2 2743   4.173   2.585   2.227  0.1002 -0.7230  2.1561
  834SOL     OW 2744   2.470   2.710   0.548 -0.6245 -0.1591  0.0657
  834SOL    HW1 2745   2.550   2.659   0.536 -0.4371 -0.2711  1.5201
  834SOL    HW2 2746   2.479   2.784   0.488  1.5456  0.9221  1.5778
  835SOL     OW 2747   1.778   2.398   1.641  0.3041  0.2269 -0.0878
  835SOL    HW1 2748   1.709   2.455   1.675 -0.0097 -0.4121  0.3361
  835SOL    HW2 2749   1.738   2.312   1.633  0.3671  0.3158 -2.0262
  836SOL     OW 2750   3.859   3.688   2.597  0.4080  0.0175  0.4995
  836SOL    HW1 2751   3.844   3.644   2.681  0.8798  0.7067  0.9606
  836SOL    HW2 2752   3.783   3.666   2.544  0.6569 -1.3756  0.7020
  837SOL     OW 2753   1.371   0.454   1.592 -0.1418  0.3798  0.1958
  837SOL    HW1 2754   1.345   0.536   1.634 -2.1490 -0.2596  0.2870
  837SOL    HW2 2755   1.342   0.386   1.652 -2.3004 -0.5259 -1.7022
  838SOL     OW 2756   1.983   1.789   3.054  0.2380 -0.5278 -0.3178
  838SOL    HW1 2757   2.035   1.764   2.978  1.2059  0.2573  0.0619
  838SOL    HW2 2758   1.898   1.813   3.018  0.8591  0.3871 -1.2442
  839SOL     OW 2759   2.196   2.655   1.231 -0.0539  0.2323  0.2215
  839SOL    HW1 2760   2.176   2.695   1.315 -1.0386 -1.8898  1.0659
  839SOL    HW2 2761   2.111   2.639   1.191  0.3772  0.5385 -0.8642
  840SOL     OW 2762   1.066   0.232   2.296 -0.1941  1.0170  0.4106
  840SOL    HW1 2763   1.032   0.196   2.214  0.3972  1.1847  0.0814
  840SOL    HW2 2764   1.077   0.326   2.278 -1.3200  1.2949  1.1190
  841SOL     OW 2765   2.263   0.792   2.474  0.1885  0.0174  0.2838
  841SOL    HW1 2766   2.178   0.805   2.431 -0.0828  1.4665  1.1794
  841SOL    HW2 2767   2.275   0.697   2.475 -0.6657 -0.1406 -1.2703
  842SOL     OW 2768   0.195   0.020   1.961  0.1396 -0.0609 -0.2594
  842SOL    HW1 2769   0.116   0.074   1.968  0.2965 -0.0181  2.1841
  842SOL    HW2 2770   0.267   0.083   1.965  0.3088 -0.2605 -0.1415
  843SOL     OW 2771   3.021   3.494   0.209  0.1328 -0.0076 -0.3533
  843SOL    HW1 2772   2.964   3.539   0.146 -1.6077 -1.7665 -0.1319
  843SOL    HW2 2773   3.103   3.544   0.207 -0.8105  1.6007 -1.9777
  844SOL     OW 2774   1.240   1.505   1.985 -0.9717 -0.0741 -0.5258
  844SOL    HW1 2775   1.274   1.416   1.983  1.7965  0.7869  1.1260
  844SOL    HW2 2776   1.176   1.505   2.056  0.2985 -0.4213  0.6686
  845SOL     OW 2777   1.190   3.763   1.232 -0.1390 -0.0604  0.1336
  845SOL    HW1 2778   1.208   3.829   1.165 -1.2349 -0.4365 -0.5566
  845SOL    HW2 2779   1.199   3.811   1.315  0.7813  0.5197 -0.2787
  846SOL     OW 2780   3.704   1.600   2.223 -0.2357  0.4795  0.2022
  846SOL    HW1 2781   3.697   1.565   2.312 -0.8856  0.9928  0.3629
  846SOL    HW2 2782   3.797   1.622   2.213 -0.5612  2.9007  1.7469
  847SOL     OW 2783   1.342   3.041   1.082 -0.0720 -0.1315 -0.1301
  847SOL    HW1 2784   1.296   3.076   1.006  0.7499  1.5233  0.1021
  847SOL    HW2 2785   1.407   2.981   1.045 -1.0099 -0.9152 -0.5722
  848SOL     OW 2786   0.672   3.889   0.434  0.4423  0.1605  0.1590
  848SOL    HW1 2787   0.633   3.976   0.424 -1.3784 -0.5072  1.0087
  848SOL    HW2 2788   0.724   3.877   0.354 -0.0188  1.6641 -0.3990
  849SOL     OW 2789   0.119   3.662   0.963 -0.2672  0.0194 -0.0761
  849SOL    HW1 2790   0.081   3.587   0.919 -0.3262  0.8555 -1.5020
  849SOL    HW2 2791   0.127   3.729   0.895  1.3571  0.7391  0.7620
  850SOL     OW 2792   3.322   1.796   2.790 -0.2864 -0.4414  0.2232
  850SOL    HW1 2793   3.350   1.708   2.766  0.9447 -0.4556  1.5646
  850SOL    HW2 2794   3.234   1.784   2.827 -1.5467 -0.6087 -2.6101
  851SOL     OW 2795   0.037   3.525   2.372  0.5109 -0.0302 -0.1244
  851SOL    HW1 2796   0.074   3.593   2.429  0.5042  0.5579 -0.8104
  851SOL    HW2 2797  -0.029   3.483   2.426  1.5545 -0.5133  0.8320
  852SOL     OW 2798   0.426   3.738   2.317 -0.3786 -0.7212 -0.0567
  852SOL    HW1 2799   0.461   3.817   2.359 -1.4101 -0.7415  0.8905
  852SOL    HW2 2800   0.333   3.738   2.339 -1.0986 -0.4910 -2.7690
  853SOL     OW 2801   1.217   4.391   1.909  0.5747 -0.3329  0.9079
  853SOL    HW1 2802   1.224   4.296   1.895 -2.0367 -0.6681  1.3780
  853SOL    HW2 2803   1.232   4.402   2.003  0.4633 -0.3178  0.9230
  854SOL     OW 2804   0.834   0.532   1.270 -0.0474 -0.5606  0.2690
  854SOL    HW1 2805   0.778   0.460   1.299 -0.3873 -1.5124 -2.4633
  854SOL    HW2 2806   0.923   0.500   1.285 -0.1990 -1.5660 -0.8318
  855SOL     OW 2807   1.321   0.734   1.589  0.1180 -0.2911 -0.4035
  855SOL    HW1 2808   1.404   0.748   1.635  0.8466 -0.9809 -1.4732
  855SOL    HW2 2809   1.344   0.738   1.496 -0.9708 -0.9118 -0.7105
  856SOL     OW 2810   3.981   0.768   1.913  0.4305 -0.0062 -0.1073
  856SOL    HW1 2811   3.888   0.791   1.909  0.2206 -0.5861  0.9875
  856SOL    HW2 2812   3.987   0.708   1.988  1.7889  0.5126  0.2143
  857SOL     OW 2813   0.762   3.284   1.988  0.2803  0.0916 -0.0677
  857SOL    HW1 2814   0.798   3.289   1.899  0.4632 -0.8807 -0.0585
  857SOL    HW2 2815   0.819   3.341   2.039  0.5673  0.1490 -0.4427
  858SOL     OW 2816   0.526   4.040   1.684 -0.1210  0.1225  0.0105
  858SOL    HW1 2817   0.496   4.094   1.757  1.8191  1.6833 -0.2689
  858SOL    HW2 2818   0.511   4.093   1.606  1.2852  0.0568 -0.3365
  859SOL     OW 2819   0.941   3.815   1.863 -0.2934  0.4464 -0.0530
  859SOL    HW1 2820   0.875   3.878   1.891  1.3881  0.5710  4.5163
  859SOL    HW2 2821   1.024   3.853   1.891  1.1090 -2.3183 -0.0412
  860SOL     OW 2822   3.553   0.982   2.202 -0.2525  0.5387  0.1038
  860SOL    HW1 2823   3.497   1.055   2.227  1.7782  1.6680  1.6835
  860SOL    HW2 2824   3.557   0.927   2.280 -1.1866 -0.9297 -0.8449
  861SOL     OW 2825   1.839   3.860   2.560  0.0335 -0.0235 -0.0978
  861SOL    HW1 2826   1.886   3.932   2.518 -0.8720  0.8112  0.2687
  861SOL    HW2 2827   1.755   3.856   2.514 -0.5331  0.1839  0.8809
  862SOL     OW 2828   1.380   4.110   2.355  0.0497  0.1534  0.6562
  862SOL    HW1 2829   1.308   4.168   2.330 -0.5743  0.3993  2.8095
  862SOL    HW2 2830   1.451   4.169   2.380  0.7525 -0.0840 -0.7206
  863SOL     OW 2831   1.473   3.591   0.738 -0.1941 -0.4341 -0.7760
  863SOL    HW1 2832   1.537   3.537   0.786  0.8661 -0.1803 -1.8439
  863SOL    HW2 2833   1.448   3.536   0.664  0.2110  0.1906 -1.3798
  864SOL     OW 2834   0.520   1.498   1.934  0.1760 -0.0035  0.3762
  864SOL    HW1 2835   0.542   1.414   1.894  0.9031 -0.1375  1.0141
  864SOL    HW2 2836   0.495   1.476   2.024  1.2442  0.5278  0.8212
  865SOL     OW 2837   4.123   3.712   1.039  0.0571  0.2615 -0.2208
  865SOL    HW1 2838   4.150   3.692   0.949 -0.3118 -1.1227 -0.0472
  865SOL    HW2 2839   4.071   3.636   1.066 -1.3801  1.4655  0.5406
  866SOL     OW 2840   1.848   3.828   0.721  0.6242 -0.6472  1.1485
  866SOL    HW1 2841   1.939   3.856   0.708  0.5144 -1.4261 -1.9849
  866SOL    HW2 2842   1.855   3.736   0.747  0.7122 -0.7813  0.6455
  867SOL     OW 2843   2.305   0.098   2.603  0.1654  0.4126 -0.5293
  867SOL    HW1 2844   2.333   0.107   2.512  2.0319  2.5719  0.1706
  867SOL    HW2 2845   2.211   0.083   2.597  0.4554 -1.0642 -2.8197
  868SOL     OW 2846   0.811   1.106   1.652  0.0495 -0.4162  0.7023
  868SOL    HW1 2847   0.792   1.013   1.639 -0.0020 -0.2440 -0.5625
  868SOL    HW2 2848   0.876   1.107   1.722 -1.2008 -1.2837  1.9073
  869SOL     OW 2849   4.357   2.197   1.355 -0.0646 -0.2231  0.0917
  869SOL    HW1 2850   4.338   2.173   1.446  1.3639  2.4547  1.2063
  869SOL    HW2 2851   4.311   2.280   1.342  1.6955  0.6647 -0.8047
  870SOL     OW 2852   2.811   1.716   2.978 -0.0938  0.4840 -0.0978
  870SOL    HW1 2853   2.825   1.661   2.901 -1.5146  1.0491 -0.7985
  870SOL    HW2 2854   2.782   1.800   2.942  0.5176  1.1947  1.0156
  871SOL     OW 2855   3.631   3.975   2.143  0.4977 -0.5998 -0.3905
  871SOL    HW1 2856   3.726   3.985   2.132  0.5350 -0.3278  0.1211
  871SOL    HW2 2857   3.594   4.005   2.061  0.8316 -0.2079 -0.4018
  872SOL     OW 2858   0.175   3.243   2.364  0.1134 -0.0650  0.3602
  872SOL    HW1 2859   0.139   3.327   2.392 -1.1770 -0.2897 -0.5127
  872SOL    HW2 2860   0.155   3.238   2.271 -0.0788 -1.4585  0.4529
  873SOL     OW 2861   1.411   3.808   0.590  0.0930  0.0159 -0.1283
  873SOL    HW1 2862   1.419   3.734   0.650 -1.7175 -0.3943 -0.3346
  873SOL    HW2 2863   1.499   3.846   0.587  1.1844 -2.3171 -0.2789
  874SOL     OW 2864   1.796   4.100   0.658 -0.0251 -0.3098  0.7032
  874SOL    HW1 2865   1.836   4.013   0.659  1.5191  0.3765  0.9228
  874SOL    HW2 2866   1.842   4.148   0.726 -1.9849  0.2250  1.7376
  875SOL     OW 2867   1.017   2.664   1.376  0.1916 -0.1303  0.2339
  875SOL    HW1 2868   0.982   2.608   1.444  1.5207 -0.4848  0.6561
  875SOL    HW2 2869   1.099   2.697   1.412  0.5908  0.1950 -0.9323
  876SOL     OW 2870   0.686   2.444   1.935  0.2550 -0.2131 -0.0389
  876SOL    HW1 2871   0.750   2.482   1.876  1.3313 -0.5914  0.8557
  876SOL    HW2 2872   0.671   2.511   2.002 -0.8119  0.1407 -0.6109
  877SOL     OW 2873   0.211   0.900   2.935  0.2247  0.3152  0.0862
  877SOL    HW1 2874   0.254   0.861   3.010 -0.4545 -0.4959  0.0764
  877SOL    HW2 2875   0.174   0.826   2.887 -1.9141  0.9849  0.5618
  878SOL     OW 2876   0.435   1.198   0.728 -0.2109 -0.1802  0.1607
  878SOL    HW1 2877   0.371   1.268   0.714 -1.0863 -1.1017 -0.6588
  878SOL    HW2 2878   0.382   1.121   0.748  0.7071 -0.7059  0.6265
  879SOL     OW 2879   2.767   3.969   1.750 -0.5513 -0.0711  0.2330
  879SOL    HW1 2880   2.848   4.021   1.746  0.7604 -2.0078  0.0772
  879SOL    HW2 2881   2.739   3.975   1.841 -0.1879  0.5742  0.3080
  880SOL     OW 2882   4.019   1.534   1.000 -0.1096 -0.2709 -0.2714
  880SOL    HW1 2883   4.092   1.550   0.939 -1.8528 -1.1335 -2.7434
  880SOL    HW2 2884   4.040   1.450   1.040  0.4821 -0.3040 -0.6299
  881SOL     OW 2885   2.080   0.415   2.571  0.2722 -0.7908  0.6227
  881SOL    HW1 2886   2.012   0.451   2.514 -0.6854 -1.3155  1.4080
  881SOL    HW2 2887   2.032   0.370   2.640  1.4315 -2.5969  0.3030
  882SOL     OW 2888   1.600   1.101   2.479 -0.2585 -0.6153 -0.5907
  882SOL    HW1 2889   1.637   1.102   2.567 -2.8897  1.8568  0.6561
  882SOL    HW2 2890   1.546   1.022   2.477 -2.0400  0.4619  1.0039
  883SOL     OW 2891   1.428   0.806   2.928 -0.0168 -0.0883  0.0007
  883SOL    HW1 2892   1.487   0.879   2.948 -1.2855  0.8992  0.2410
  883SOL    HW2 2893   1.451   0.738   2.991 -1.6913  1.7228  2.7577
  884SOL     OW 2894   0.563   2.942   2.972 -0.1845 -0.5061  0.1153
  884SOL    HW1 2895   0.529   2.929   2.883  0.2145  0.5087 -0.1915
  884SOL    HW2 2896   0.485   2.952   3.026 -0.4310 -1.1740 -0.1025
  885SOL     OW 2897   1.919   3.391   1.813  0.8910 -0.2196  0.1909
  885SOL    HW1 2898   1.839   3.353   1.851  0.5610 -0.0487 -0.3153
  885SOL    HW2 2899   1.894   3.413   1.723  0.7588  2.0658  0.7111
  886SOL     OW 2900   1.571   3.006   0.778  0.2076 -0.4513 -0.3412
  886SOL    HW1 2901   1.631   3.068   0.736  0.5836 -1.0153 -0.6495
  886SOL    HW2 2902   1.517   3.060   0.836  0.1879  0.2403 -0.9881
  887SOL     OW 2903   0.734   0.351   1.527 -0.9541 -0.4988 -0.0878
  887SOL    HW1 2904   0.733   0.426   1.586  0.4446 -0.1496 -0.4497
  887SOL    HW2 2905   0.751   0.276   1.583 -0.8514 -0.3310  0.1071
  888SOL     OW 2906   2.167   1.576   1.604  0.1133  0.0929 -0.3904
  888SOL    HW1 2907   2.089   1.613   1.647  1.0090  0.2840  1.1483
  888SOL    HW2 2908   2.156   1.481   1.614  0.6021  0.1476  0.8592
  889SOL     OW 2909   2.831   4.235   0.734 -0.2762  0.2749  0.0840
  889SOL    HW1 2910   2.810   4.174   0.663  1.2207  0.9768 -1.0099
  889SOL    HW2 2911   2.752   4.288   0.743  0.4804  2.3103 -3.3557
  890SOL     OW 2912   2.432   4.213   1.638 -0.4153 -0.1747  0.5974
  890SOL    HW1 2913   2.517   4.247   1.610 -0.6273 -0.3265 -0.2539
  890SOL    HW2 2914   2.379   4.213   1.558 -0.9027 -1.0324  0.9144
  891SOL     OW 2915   0.750   3.188   1.382 -0.7112  0.3008 -0.1381
  891SOL    HW1 2916   0.834   3.189   1.336 -0.2988 -0.1659  0.5805
  891SOL    HW2 2917   0.730   3.280   1.398  0.1456  0.3831  0.5349
  892SOL     OW 2918   1.779   1.115   2.752 -0.3343  0.4630 -0.6851
  892SOL    HW1 2919   1.819   1.106   2.666 -0.0404  3.2744 -0.9138
  892SOL    HW2 2920   1.810   1.199   2.785 -0.8909 -0.2688  1.9576
  893SOL     OW 2921   1.884   2.734   0.563 -0.2862 -0.5029  0.4555
  893SOL    HW1 2922   1.944   2.786   0.509  1.1487 -0.2702  2.1797
  893SOL    HW2 2923   1.923   2.647   0.566  1.3305  0.2083  3.4385
  894SOL     OW 2924   1.473   2.996   2.911 -0.0080 -0.0862 -0.2524
  894SOL    HW1 2925   1.555   2.951   2.933 -0.4955 -1.0018 -0.2730
  894SOL    HW2 2926   1.419   2.989   2.990  0.0741  0.8894 -0.0875
  895SOL     OW 2927   0.909   0.731   3.003 -0.2962 -0.0173  0.3392
  895SOL    HW1 2928   0.873   0.678   2.932 -0.3604  0.0370  0.3312
  895SOL    HW2 2929   1.002   0.741   2.981 -0.5818  1.1272 -0.4457
  896SOL     OW 2930   3.279   2.706   2.498 -0.4047  0.2545 -0.0083
  896SOL    HW1 2931   3.243   2.754   2.424 -0.1359  0.2584 -0.1347
  896SOL    HW2 2932   3.343   2.765   2.537 -0.1688  0.0497 -0.0838
  897SOL     OW 2933   2.546   3.024   0.090  0.5871  0.1945  0.4838
  897SOL    HW1 2934   2.471   2.976   0.125  0.8823  0.0890  0.9890
  897SOL    HW2 2935   2.612   2.956   0.074  0.9862  0.4186  1.1472
  898SOL     OW 2936   1.902   3.358   3.022 -0.5403 -0.6935 -0.2386
  898SOL    HW1 2937   1.912   3.449   3.048 -0.8903 -0.9857  0.9991
  898SOL    HW2 2938   1.988   3.319   3.036  0.2048 -0.1308 -2.7393
  899SOL     OW 2939   0.980   0.258   1.727 -0.1457 -0.5205 -0.0889
  899SOL    HW1 2940   0.930   0.339   1.727 -1.8667 -1.5252  0.0886
  899SOL    HW2 2941   0.971   0.223   1.638  3.3254  0.9894 -1.2033
  900SOL     OW 2942   0.401   1.422   2.777  0.0477  0.1514 -0.6336
  900SOL    HW1 2943   0.327   1.365   2.797 -0.2449  0.2792 -1.3214
  900SOL    HW2 2944   0.453   1.372   2.714 -0.5019  0.8581 -1.6609
  901SOL     OW 2945   2.657   2.160   1.775  0.0912  0.7709 -0.0913
  901SOL    HW1 2946   2.586   2.136   1.835 -0.3418 -0.6568 -1.1243
  901SOL    HW2 2947   2.623   2.235   1.726 -0.6273  0.2286 -0.4330
  902SOL     OW 2948   1.270   4.132   1.967  0.0818  0.1535 -0.2835
  902SOL    HW1 2949   1.258   4.064   2.033  1.2663 -1.6161 -1.7836
  902SOL    HW2 2950   1.363   4.131   1.947 -0.0597  1.4370 -1.1843
  903SOL     OW 2951   0.538   2.299   0.185 -0.4530 -0.1111 -0.3729
  903SOL    HW1 2952   0.506   2.273   0.271 -2.0548  0.0848 -0.8737
  903SOL    HW2 2953   0.625   2.259   0.179 -0.5432 -0.5946  1.0998
  904SOL     OW 2954   3.823   1.387   0.419 -0.5730 -0.2819  0.6896
  904SOL    HW1 2955   3.811   1.474   0.459  1.3446 -0.4960  1.7987
  904SOL    HW2 2956   3.796   1.400   0.327 -0.9980  1.2920  0.9987
  905SOL     OW 2957   2.455   1.201   2.589 -0.7084 -0.2543  0.2643
  905SOL    HW1 2958   2.429   1.219   2.499  0.8951 -1.1240 -0.4116
  905SOL    HW2 2959   2.443   1.107   2.599  2.7862 -0.9007 -0.3888
  906SOL     OW 2960   0.533   3.821   0.728 -0.0492  0.0162 -0.3926
  906SOL    HW1 2961   0.628   3.834   0.731 -0.1614  1.0659 -0.9814
  906SOL    HW2 2962   0.501   3.893   0.674 -0.9708 -1.4642 -1.9414
  907SOL     OW 2963   1.218   2.218   1.590  0.3786 -0.0180  0.3823
  907SOL    HW1 2964   1.149   2.167   1.548  0.4676 -1.0872  1.4700
  907SOL    HW2 2965   1.286   2.153   1.612  1.7114  0.9886 -0.5972
  908SOL     OW 2966   1.805   4.366   1.741 -0.4399  0.1491  0.1796
  908SOL    HW1 2967   1.874   4.423   1.772  0.2676 -0.8633  0.5329
  908SOL    HW2 2968   1.734   4.376   1.804  0.7159 -1.3538  1.8093
  909SOL     OW 2969   0.577   2.930   2.641 -0.3516 -0.4982 -0.9446
  909SOL    HW1 2970   0.559   2.846   2.683 -1.5916 -0.1606 -0.7617
  909SOL    HW2 2971   0.492   2.958   2.606 -0.4533  1.7072  0.8690
  910SOL     OW 2972   1.445   3.385   2.001  0.1684  0.0749  0.1224
  910SOL    HW1 2973   1.421   3.293   2.013  0.0115  0.0894 -0.0801
  910SOL    HW2 2974   1.530   3.381   1.957  0.6911  0.0221  1.0907
  911SOL     OW 2975   0.908   2.388   2.256 -0.0960 -0.0877 -0.7425
  911SOL    HW1 2976   0.817   2.388   2.284  0.1912  1.1178  0.2834
  911SOL    HW2 2977   0.914   2.458   2.192  0.1325 -0.0816 -0.7151
  912SOL     OW 2978   4.256   3.556   1.820 -0.6071  0.6294  0.0225
  912SOL    HW1 2979   4.253   3.516   1.733  0.1270 -1.3088  0.8378
  912SOL    HW2 2980   4.350   3.567   1.837 -0.6949 -0.0481  1.0094
  913SOL     OW 2981   1.314   2.967   2.706 -0.4687 -0.2516  0.1103
  913SOL    HW1 2982   1.368   2.984   2.783 -1.9264  0.4969  1.0159
  913SOL    HW2 2983   1.253   3.041   2.703  0.9180  0.9178 -3.0522
  914SOL     OW 2984   1.825   3.087   0.354  0.1490 -0.0728  0.1701
  914SOL    HW1 2985   1.785   3.106   0.439 -0.1931  1.2677 -0.2585
  914SOL    HW2 2986   1.792   3.156   0.296  0.1002 -1.1466 -1.1445
  915SOL     OW 2987   0.497   3.421   2.100  0.1308 -0.5259 -0.2693
  915SOL    HW1 2988   0.565   3.486   2.085  1.7456 -1.8166  1.0198
  915SOL    HW2 2989   0.492   3.372   2.018 -1.6135  1.5492 -1.5199
  916SOL     OW 2990   3.484   1.465   0.361  0.3196 -0.1868 -0.1354
  916SOL    HW1 2991   3.404   1.412   0.362 -0.2788  0.6912 -0.3679
  916SOL    HW2 2992   3.538   1.425   0.294  0.2977 -1.0955  0.3695
  917SOL     OW 2993   4.161   0.751   0.040 -0.0906 -0.4849 -0.2592
  917SOL    HW1 2994   4.236   0.750  -0.020 -0.8669 -1.4215 -1.2660
  917SOL    HW2 2995   4.145   0.844   0.056  0.8147 -0.2515 -0.6286
  918SOL     OW 2996   2.780   3.204   2.823 -0.1190 -0.2206 -0.0962
  918SOL    HW1 2997   2.693   3.167   2.839 -0.4534  0.4965 -0.2034
  918SOL    HW2 2998   2.828   3.135   2.778 -1.4820  0.2382 -2.4512
  919SOL     OW 2999   4.194   3.842   0.182 -0.5588  0.2937 -0.3703
  919SOL    HW1 3000   4.217   3.929   0.216  2.6604 -0.4974 -0.1407
  919SOL    HW2 3001   4.176   3.857   0.089 -0.8605  1.3054 -0.1636
  920SOL     OW 3002   3.000   2.906   0.746 -0.0874  0.1769  0.3453
  920SOL    HW1 3003   3.058   2.982   0.756 -1.3236  1.0960  0.7659
  920SOL    HW2 3004   2.953   2.923   0.664 -0.6853  0.0909  0.6680
  921SOL     OW 3005   1.362   1.714   2.128 -0.0457  0.4589 -0.1485
  921SOL    HW1 3006   1.324   1.735   2.213  0.8905 -1.3942  0.7949
  921SOL    HW2 3007   1.309   1.642   2.095  1.1863 -0.6397  0.1590
  922SOL     OW 3008   2.669   3.778   2.268 -0.3400 -0.2606  0.1229
  922SOL    HW1 3009   2.722   3.704   2.239 -0.4098 -0.2110 -0.1333
  922SOL    HW2 3010   2.682   3.844   2.201 -0.0175  0.0822  0.5159
  923SOL     OW 3011   1.288   1.505   0.994  0.3479  0.2528  0.0025
  923SOL    HW1 3012   1.233   1.428   0.985  0.6837 -0.2788  1.9166
  923SOL    HW2 3013   1.368   1.472   1.036 -0.4304  1.8911  3.1256
  924SOL     OW 3014   1.220   4.082   2.589  0.3266 -0.3473 -0.5682
  924SOL    HW1 3015   1.180   4.010   2.639  1.5626  0.2407  1.3749
  924SOL    HW2 3016   1.251   4.041   2.508  0.0095 -1.7686 -0.0004
  925SOL     OW 3017   3.707   0.075   0.002  0.3001  0.4331  0.3618
  925SOL    HW1 3018   3.789   0.114  -0.029  0.2816  0.6809  0.6157
  925SOL    HW2 3019   3.725   0.054   0.094 -0.1894  1.2605  0.6556
  926SOL     OW 3020   1.335   0.201   0.937  0.5985  0.2908  0.5134
  926SOL    HW1 3021   1.299   0.197   0.849 -0.1507 -0.0429  0.8317
  926SOL    HW2 3022   1.314   0.116   0.976  0.3443  0.6806  1.2414
  927SOL     OW 3023  -0.013   2.693   1.341  0.0695  0.4821 -0.2011
  927SOL    HW1 3024   0.008   2.604   1.314 -1.1278  0.2280 -0.3451
  927SOL    HW2 3025   0.030   2.748   1.276  1.4085  0.0494  0.2890
  928SOL     OW 3026   1.359   0.355   2.225  0.4813 -0.4046 -0.3725
  928SOL    HW1 3027   1.408   0.341   2.306  1.3354  0.4647 -0.7205
  928SOL    HW2 3028   1.295   0.423   2.247  0.5244 -0.3696 -0.3562
  929SOL     OW 3029   0.120   1.031   2.451 -0.0349 -0.5473  0.5211
  929SOL    HW1 3030   0.110   1.003   2.360 -1.4323 -0.2870  0.5726
  929SOL    HW2 3031   0.214   1.047   2.461  0.3109 -1.7488 -0.5171
  930SOL     OW 3032   2.983   0.227   2.480 -0.6334 -0.5878  0.1425
  930SOL    HW1 3033   2.989   0.166   2.407  0.6045  0.2904 -0.5308
  930SOL    HW2 3034   2.959   0.173   2.555 -4.3491 -1.2355 -1.2790
  931SOL     OW 3035   4.139   4.092   1.455  0.3019 -0.3031  0.1539
  931SOL    HW1 3036   4.166   4.053   1.538  0.5636  0.7563  0.5813
  931SOL    HW2 3037   4.209   4.068   1.394  2.3623  2.3615  1.2340
  932SOL     OW 3038   0.032   2.976   3.078  0.2298 -0.1244  1.2458
  932SOL    HW1 3039   0.121   3.013   3.079  0.3257 -0.3040  0.2504
  932SOL    HW2 3040   0.009   2.971   2.986 -0.8402 -0.0526  1.4945
  933SOL     OW 3041   2.569   0.301   2.372  0.0234  0.1978 -0.1941
  933SOL    HW1 3042   2.554   0.206   2.372 -2.4710  0.5054 -0.4082
  933SOL    HW2 3043   2.579   0.323   2.465  0.3740 -0.2501 -0.1238
  934SOL     OW 3044   0.256   2.199   2.647 -0.4432  0.2810 -0.3851
  934SOL    HW1 3045   0.280   2.121   2.597  0.9033  0.0039  0.6377
  934SOL    HW2 3046   0.331   2.216   2.703 -1.0300  1.8652 -0.0096
  935SOL     OW 3047   0.586   1.529   1.268  0.1401 -0.2369 -0.3370
  935SOL    HW1 3048   0.635   1.450   1.290  0.4419  0.1423  0.4041
  935SOL    HW2 3049   0.653   1.596   1.256 -0.1572  1.1390  4.0237
  936SOL     OW 3050   1.457   0.409   2.884 -0.3882 -0.3998  0.2977
  936SOL    HW1 3051   1.501   0.459   2.953 -1.9760 -0.6350  1.5716
  936SOL    HW2 3052   1.378   0.374   2.927 -0.5198 -2.0710 -1.1685
  937SOL     OW 3053   4.236   3.580   3.087 -0.7004  0.0599  0.5419
  937SOL    HW1 3054   4.258   3.529   3.008 -1.2066  1.4123 -0.5031
  937SOL    HW2 3055   4.230   3.514   3.156  0.3924 -1.0975 -0.3990
  938SOL     OW 3056   3.351   1.134   0.660 -0.1695  0.4626  0.4922
  938SOL    HW1 3057   3.276   1.126   0.600  0.8497  1.0201 -0.8989
  938SOL    HW2 3058   3.333   1.214   0.710 -0.2551  0.9013 -0.2227
  939SOL     OW 3059   1.857   0.570   2.852 -0.2363  0.2049 -0.1066
  939SOL    HW1 3060   1.943   0.577   2.810 -0.5114  1.7321 -0.4546
  939SOL    HW2 3061   1.855   0.481   2.887  0.6950 -0.5316 -1.8180
  940SOL     OW 3062   0.310   3.600   2.101 -0.1769  0.3277  0.5689
  940SOL    HW1 3063   0.370   3.526   2.118  0.5478  0.4461 -1.2229
  940SOL    HW2 3064   0.347   3.673   2.151  0.2388 -0.0221  0.7801
  941SOL     OW 3065   3.738   1.974   0.626  0.4239  0.1819  0.7619
  941SOL    HW1 3066   3.743   1.977   0.721  1.1478  0.1875  0.7319
  941SOL    HW2 3067   3.729   1.881   0.605  0.9276  0.1215  0.8111
  942SOL     OW 3068   1.149   3.697   2.392  0.2590  0.2993  0.2638
  942SOL    HW1 3069   1.198   3.621   2.363  0.7475  0.5016  0.5536
  942SOL    HW2 3070   1.100   3.667   2.469 -0.5451 -0.0629 -0.3686
  943SOL     OW 3071   1.474   3.146   0.483 -0.2090 -0.2324  0.5938
  943SOL    HW1 3072   1.502   3.064   0.442  0.6719 -0.2128  1.1205
  943SOL    HW2 3073   1.402   3.177   0.428 -0.7330 -1.4802  0.5223
  944SOL     OW 3074   2.294   3.597   1.750 -0.3219 -0.9131 -0.2383
  944SOL    HW1 3075   2.333   3.566   1.832 -0.8641 -1.3243 -0.1249
  944SOL    HW2 3076   2.206   3.627   1.775 -1.1691 -2.6772 -0.9318
  945SOL     OW 3077   1.409   3.523   2.370 -0.0496  0.0491 -0.3144
  945SOL    HW1 3078   1.423   3.433   2.399 -0.6261  0.1482  0.2869
  945SOL    HW2 3079   1.410   3.575   2.450  2.1460  0.8653 -0.7811
  946SOL     OW 3080   1.033   0.837   2.594 -0.5415  0.0424  0.1773
  946SOL    HW1 3081   1.055   0.911   2.536 -0.0407  0.6902  1.1605
  946SOL    HW2 3082   0.940   0.823   2.581 -0.4916  0.3379 -0.5906
  947SOL     OW 3083   4.185   3.423   2.081  0.0661  0.2283  0.1084
  947SOL    HW1 3084   4.276   3.432   2.109 -0.4666  2.5978  1.3437
  947SOL    HW2 3085   4.189   3.433   1.985  1.0440  1.0394  0.2085
  948SOL     OW 3086   2.382   0.256   2.809 -0.5096  0.5236 -0.8044
  948SOL    HW1 3087   2.368   0.215   2.723  0.2977  0.7815 -1.0685
  948SOL    HW2 3088   2.296   0.289   2.834 -1.5916 -2.5478  0.0736
  949SOL     OW 3089   3.824   0.726   1.451  0.0274  0.4088 -0.3450
  949SOL    HW1 3090   3.892   0.790   1.434 -0.2743  1.2390  1.3252
  949SOL    HW2 3091   3.866   0.660   1.507 -0.6928  1.3913  1.4472
  950SOL     OW 3092   3.150   1.246   2.436  0.0568  0.2632 -0.1335
  950SOL    HW1 3093   3.167   1.261   2.529 -0.6024  2.2254 -0.2764
  950SOL    HW2 3094   3.110   1.328   2.406  0.9358 -0.0612 -2.3223
  951SOL     OW 3095   3.895   2.447   2.675 -0.5126  0.4537 -0.3478
  951SOL    HW1 3096   3.947   2.381   2.628  0.4887  1.6291 -0.9336
  951SOL    HW2 3097   3.953   2.522   2.684 -1.7522  1.4098 -0.0349
  952SOL     OW 3098   3.493   1.103   1.118  0.1289  0.1403 -0.2117
  952SOL    HW1 3099   3.514   1.192   1.144  0.3603 -0.1323  0.5649
  952SOL    HW2 3100   3.536   1.093   1.033  0.7600  0.5232  0.0505
  953SOL     OW 3101   1.078   0.038   0.832  0.1793  0.0083 -0.1235
  953SOL    HW1 3102   1.093  -0.041   0.884  1.7937  0.2353 -0.1933
  953SOL    HW2 3103   1.148   0.037   0.766 -0.3511  1.0015 -0.7210
  954SOL     OW 3104   3.222   1.118   1.133 -0.5317 -0.4125 -0.2448
  954SOL    HW1 3105   3.223   1.136   1.227 -2.7127 -0.6853 -0.1273
  954SOL    HW2 3106   3.313   1.100   1.111  0.1103  0.2722  1.6848
  955SOL     OW 3107   1.241   1.718   1.158 -0.1528 -0.1053  0.3664
  955SOL    HW1 3108   1.153   1.747   1.181 -0.8364 -2.4415  1.0391
  955SOL    HW2 3109   1.227   1.656   1.086  0.9837 -0.2626  0.2611
  956SOL     OW 3110   4.008   0.338   2.268  0.1834 -0.0700 -0.0235
  956SOL    HW1 3111   4.014   0.313   2.360  2.5643  1.1094  0.2493
  956SOL    HW2 3112   4.098   0.328   2.235 -0.6412 -0.6275 -2.2869
  957SOL     OW 3113   1.104   0.788   0.702  0.0932  0.3648  0.4751
  957SOL    HW1 3114   1.176   0.836   0.661  0.1365  0.0548  0.1842
  957SOL    HW2 3115   1.025   0.820   0.658  0.0844  0.4421  0.5454
  958SOL     OW 3116   3.961   0.952   1.335 -0.1748 -0.2338 -0.8835
  958SOL    HW1 3117   3.943   1.009   1.260 -1.1547  0.9622  0.2241
  958SOL    HW2 3118   4.004   1.008   1.399 -0.9503 -0.7663  0.1412
  959SOL     OW 3119   2.004   0.582   0.468 -0.0224 -0.4949 -0.1570
  959SOL    HW1 3120   2.077   0.611   0.414 -0.0050  1.8121  0.9941
  959SOL    HW2 3121   1.929   0.580   0.408  0.7315 -1.7832 -1.0911
  960SOL     OW 3122   3.091   3.431   2.490  0.0038  0.2186  0.5204
  960SOL    HW1 3123   3.144   3.416   2.567  0.1301  1.3956  0.6759
  960SOL    HW2 3124   3.132   3.378   2.421 -0.4921 -1.3638  1.3758
  961SOL     OW 3125   2.714   2.334   0.133 -0.0251 -0.0292  0.5385
  961SOL    HW1 3126   2.668   2.395   0.075 -1.5678 -1.3038  0.3579
  961SOL    HW2 3127   2.648   2.305   0.196  1.2501  0.1896  2.0611
  962SOL     OW 3128   2.135   1.303   1.644 -0.3928 -0.3963 -0.2765
  962SOL    HW1 3129   2.166   1.215   1.622  0.5897 -0.0851 -0.1684
  962SOL    HW2 3130   2.066   1.321   1.580  1.4038 -0.0806 -2.2302
  963SOL     OW 3131   0.886   2.504   0.421 -0.3483 -0.3616 -0.2407
  963SOL    HW1 3132   0.920   2.576   0.367  1.0182  0.7000  1.8699
  963SOL    HW2 3133   0.964   2.465   0.461 -1.2754 -1.1364  0.8976
  964SOL     OW 3134   3.505   1.091   0.439  0.0072  0.2254 -0.7597
  964SOL    HW1 3135   3.434   1.104   0.501 -1.6066 -0.4702 -2.3499
  964SOL    HW2 3136   3.564   1.028   0.481 -1.2804 -0.5753 -0.1174
  965SOL     OW 3137   0.647   1.275   0.898  0.3959  0.2589 -0.1226
  965SOL    HW1 3138   0.589   1.316   0.835 -0.8606 -1.2813 -0.0391
  965SOL    HW2 3139   0.615   1.303   0.984  1.3555  1.3868 -0.1066
  966SOL     OW 3140   2.027   0.507   0.067  0.0959 -0.7430  0.0751
  966SOL    HW1 3141   2.084   0.522   0.142 -0.1451  2.0874 -0.1632
  966SOL    HW2 3142   1.940   0.530   0.098 -0.1168 -0.2655 -0.8389
  967SOL     OW 3143   2.706   4.289   1.642 -0.0980  0.7286  0.3609
  967SOL    HW1 3144   2.695   4.292   1.738 -0.2659 -1.4182  0.4500
  967SOL    HW2 3145   2.791   4.330   1.627  0.5947 -0.1532  1.5979
  968SOL     OW 3146   3.645   4.324   1.106 -0.2529 -0.4173  0.0083
  968SOL    HW1 3147   3.691   4.274   1.039 -0.5618 -1.0589  0.2703
  968SOL    HW2 3148   3.714   4.368   1.155 -0.0143 -0.1300 -0.5800
  969SOL     OW 3149   4.183   1.025   1.755  0.2508 -0.2788  0.3954
  969SOL    HW1 3150   4.231   1.094   1.800  0.2440  0.2410 -0.3838
  969SOL    HW2 3151   4.138   1.069   1.683  0.2910 -1.1033 -0.1469
  970SOL     OW 3152   3.302   2.077   1.608  0.4216  0.4045  0.4908
  970SOL    HW1 3153   3.267   2.166   1.617 -0.5167  0.1097 -0.0801
  970SOL    HW2 3154   3.229   2.026   1.573  0.6038 -0.8537  1.8730
  971SOL     OW 3155   2.055   0.633   1.799 -0.0373 -0.3809  0.3658
  971SOL    HW1 3156   2.140   0.669   1.774  0.4926 -1.3114  0.7677
  971SOL    HW2 3157   2.048   0.552   1.748 -0.8142 -0.1698  0.1250
  972SOL     OW 3158   4.030   0.579   2.504 -0.1904  0.2407 -0.2043
  972SOL    HW1 3159   3.990   0.509   2.556  0.2085 -0.8868 -1.3559
  972SOL    HW2 3160   4.109   0.540   2.468  0.3020  1.4555 -0.4914
  973SOL     OW 3161   0.976   2.747   0.936 -0.1826 -0.0218 -0.1425
  973SOL    HW1 3162   0.881   2.748   0.922 -0.4174 -0.9105  1.1344
  973SOL    HW2 3163   0.998   2.837   0.960 -1.1169 -0.2414  1.7614
  974SOL     OW 3164   3.158   0.810   1.602 -0.1413  0.1736  0.4404
  974SOL    HW1 3165   3.150   0.890   1.550  1.0648  0.6388  0.9231
  974SOL    HW2 3166   3.092   0.751   1.566 -0.5884  1.1422 -0.3781
  975SOL     OW 3167   3.149   1.077   0.473 -0.2285 -0.4022  0.0574
  975SOL    HW1 3168   3.060   1.043   0.467 -0.0399 -1.0185  0.6342
  975SOL    HW2 3169   3.198   1.028   0.406 -0.5480  0.7391 -1.0549
  976SOL     OW 3170   0.149   1.001   1.841 -0.3965  0.5251  0.1328
  976SOL    HW1 3171   0.087   1.007   1.913 -0.8422  0.8981 -0.2691
  976SOL    HW2 3172   0.205   0.926   1.862  0.0938  1.1958  1.3282
  977SOL     OW 3173   1.032   3.100   0.632 -0.7560 -0.2159 -0.6220
  977SOL    HW1 3174   1.103   3.100   0.567 -0.2665 -0.3265 -0.0984
  977SOL    HW2 3175   0.991   3.014   0.622  0.6738 -1.0987  0.6429
  978SOL     OW 3176   0.490   0.767   0.606  0.2351 -0.3045  0.8559
  978SOL    HW1 3177   0.462   0.765   0.697  1.0814 -0.2369  1.1275
  978SOL    HW2 3178   0.507   0.860   0.589 -1.6476 -0.0697  0.0746
  979SOL     OW 3179   4.017   1.958   2.436  0.7288  0.4075 -0.2953
  979SOL    HW1 3180   4.107   1.980   2.461  0.8503  0.0019 -0.3627
  979SOL    HW2 3181   4.021   1.951   2.341  0.9388 -0.9276 -0.2073
  980SOL     OW 3182   2.598   1.872   0.102 -0.0249 -0.8263  0.3889
  980SOL    HW1 3183   2.506   1.864   0.128 -0.4749  0.3278 -0.7634
  980SOL    HW2 3184   2.635   1.934   0.164 -0.1141 -0.9854  0.6051
  981SOL     OW 3185   2.503   2.317   1.594 -1.1385 -0.0687 -0.0556
  981SOL    HW1 3186   2.504   2.343   1.501 -0.9414  0.7272  0.1592
  981SOL    HW2 3187   2.422   2.355   1.628  0.4779  2.8631  0.9407
  982SOL     OW 3188   4.027   4.085   0.904 -0.2534  0.4624 -0.2639
  982SOL    HW1 3189   4.072   4.159   0.863 -0.6066  1.5893  1.2438
  982SOL    HW2 3190   4.056   4.088   0.996  0.6587 -2.0463 -0.3938
  983SOL     OW 3191   2.052   3.674   2.501 -0.4403 -0.1735  0.3839
  983SOL    HW1 3192   1.989   3.727   2.452 -1.1802 -1.1956  0.1835
  983SOL    HW2 3193   2.084   3.732   2.570 -1.9643  0.2490  0.7791
  984SOL     OW 3194   2.582   0.607   0.307  0.0141  0.2262 -0.0599
  984SOL    HW1 3195   2.572   0.606   0.402  2.6149  2.0498  0.3499
  984SOL    HW2 3196   2.528   0.681   0.278 -1.0147 -0.5117 -0.0764
  985SOL     OW 3197   0.694   2.888   0.016  0.4989  0.4232 -0.2263
  985SOL    HW1 3198   0.762   2.876  -0.050  0.8228 -0.2247  0.2082
  985SOL    HW2 3199   0.699   2.981   0.039  0.6314  0.5738 -0.8381
  986SOL     OW 3200   1.684   3.763   2.123 -0.9603 -0.5493  0.0461
  986SOL    HW1 3201   1.593   3.758   2.094 -0.8706 -0.0663 -0.3415
  986SOL    HW2 3202   1.730   3.701   2.066 -0.9471 -0.3387 -0.1733
  987SOL     OW 3203   2.459   0.843   0.287  0.3255  0.1953  0.1927
  987SOL    HW1 3204   2.463   0.927   0.334 -1.1025 -0.0561  0.8225
  987SOL    HW2 3205   2.466   0.867   0.195  1.2634  0.8714  0.4232
  988SOL     OW 3206   2.381   1.355   0.817 -0.0355  0.3521  0.0243
  988SOL    HW1 3207   2.371   1.429   0.876 -0.5311 -0.4444  0.9812
  988SOL    HW2 3208   2.378   1.278   0.875 -1.4855 -0.5021 -1.1228
  989SOL     OW 3209   2.468   0.500   2.210 -0.3032  0.2151 -0.1071
  989SOL    HW1 3210   2.532   0.507   2.138 -1.7392  0.8764 -1.3920
  989SOL    HW2 3211   2.507   0.438   2.271  1.8866  1.1307 -0.4788
  990SOL     OW 3212   2.252   0.678   2.202 -0.0262 -0.3212 -0.0355
  990SOL    HW1 3213   2.326   0.639   2.249 -0.3451 -1.4765 -0.4523
  990SOL    HW2 3214   2.289   0.711   2.121  0.2465  0.2575  0.3166
  991SOL     OW 3215   0.846   1.476   2.055 -0.0977  1.1407 -0.2752
  991SOL    HW1 3216   0.894   1.518   1.983 -0.0650  1.9245  0.2009
  991SOL    HW2 3217   0.779   1.423   2.011 -0.0772  1.6130 -0.8816
  992SOL     OW 3218   0.287   1.677   2.671 -0.0248  0.6256  0.0078
  992SOL    HW1 3219   0.328   1.602   2.713 -0.7467  0.3431  0.2255
  992SOL    HW2 3220   0.287   1.745   2.739 -1.4508  0.0795  0.5988
  993SOL     OW 3221   3.872   3.851   0.018 -0.1214  0.5455 -0.1218
  993SOL    HW1 3222   3.908   3.863   0.106  0.9734 -0.7431 -0.3512
  993SOL    HW2 3223   3.876   3.938  -0.022 -1.3250  1.3020  1.3182
  994SOL     OW 3224   1.222   0.564   0.631 -0.2531  0.1788 -0.1399
  994SOL    HW1 3225   1.198   0.654   0.654  1.3167  1.1335 -1.9868
  994SOL    HW2 3226   1.212   0.560   0.536 -0.7496 -1.7863 -0.0561
  995SOL     OW 3227   3.511   1.952   1.051 -0.2106  0.0308  0.4885
  995SOL    HW1 3228   3.430   1.904   1.033  0.1683 -1.1293  1.6577
  995SOL    HW2 3229   3.489   2.043   1.033 -1.7607 -0.2647  0.6787
  996SOL     OW 3230   3.967   1.667   1.300 -0.2482  0.1845 -0.3365
  996SOL    HW1 3231   3.926   1.603   1.243  0.0620 -1.0756  0.7930
  996SOL    HW2 3232   4.057   1.674   1.268 -0.1479 -0.3187 -0.1752
  997SOL     OW 3233   4.231   0.194   2.062  0.2061 -0.0881 -0.4052
  997SOL    HW1 3234   4.287   0.206   2.139 -1.5755  1.9538  0.6541
  997SOL    HW2 3235   4.201   0.103   2.069 -0.0855  0.1099  1.4658
  998SOL     OW 3236   3.635   1.063   1.635 -0.5734 -0.0032 -0.0196
  998SOL    HW1 3237   3.623   1.045   1.541  1.1045  0.7379 -0.4055
  998SOL    HW2 3238   3.646   1.158   1.640 -0.5636 -0.0488  0.9293
  999SOL     OW 3239   3.416   1.316   2.301  0.0057  0.3293 -0.0431
  999SOL    HW1 3240   3.422   1.385   2.368  0.0791 -0.0620  0.3615
  999SOL    HW2 3241   3.324   1.288   2.304  0.3740 -0.8625  1.1084
 1000SOL     OW 3242   2.126   1.977   0.124  0.0268 -0.6235  0.0524
 1000SOL    HW1 3243   2.140   2.068   0.152  0.6935 -0.6715 -0.1061
 1000SOL    HW2 3244   2.128   1.982   0.028 -0.1554 -0.7713  0.0417
 1001SOL     OW 3245   0.062   0.842   0.577  0.3371 -0.4718  0.4463
 1001SOL    HW1 3246  -0.021   0.875   0.610  1.6160  1.1779  2.2988
 1001SOL    HW2 3247   0.050   0.748   0.570 -0.8288 -0.6984  3.5992
 1002SOL     OW 3248   2.020   0.867   2.177  0.3456 -0.2583  0.3332
 1002SOL    HW1 3249   1.972   0.791   2.145 -0.4284  0.3342  0.0386
 1002SOL    HW2 3250   2.112   0.844   2.165  0.1270 -0.1727 -2.2088
 1003SOL     OW 3251   1.579   4.190   1.265 -0.0453  0.0406  0.2650
 1003SOL    HW1 3252   1.638   4.116   1.255 -0.3618 -0.1204 -0.5149
 1003SOL    HW2 3253   1.624   4.250   1.324 -0.3225 -1.3134  1.9029
 1004SOL     OW 3254   0.364   0.343   1.109 -0.4188 -0.0337  0.0587
 1004SOL    HW1 3255   0.420   0.413   1.075  0.8858 -0.8442  0.4546
 1004SOL    HW2 3256   0.299   0.328   1.040  2.1329 -1.6382 -2.2158
 1005SOL     OW 3257   1.657   2.071   0.232  0.3186 -0.2609  0.3542
 1005SOL    HW1 3258   1.744   2.031   0.234 -0.0560 -1.0780  0.7336
 1005SOL    HW2 3259   1.602   2.008   0.185  0.3622  1.1761 -1.8025
 1006SOL     OW 3260   3.670   0.720   2.317  0.1634  0.1935  0.8047
 1006SOL    HW1 3261   3.701   0.633   2.343  1.1808  0.7458  1.5190
 1006SOL    HW2 3262   3.745   0.760   2.272  0.1716  1.1799  1.6526
 1007SOL     OW 3263   1.159   1.377   0.644 -0.7838  0.5113 -0.1380
 1007SOL    HW1 3264   1.066   1.356   0.635 -0.3635 -0.8219 -2.1307
 1007SOL    HW2 3265   1.184   1.411   0.558  0.7846 -0.1449  0.0269
 1008SOL     OW 3266   3.214   0.920   0.758 -0.0967  0.3009  0.0659
 1008SOL    HW1 3267   3.187   0.869   0.681 -1.0092  1.5448 -0.4605
 1008SOL    HW2 3268   3.290   0.971   0.727 -2.0869  2.8845 -0.9290
 1009SOL     OW 3269   1.620   0.671   2.192  0.1367 -0.3715  0.6503
 1009SOL    HW1 3270   1.532   0.683   2.228  0.0326  0.3066  0.1895
 1009SOL    HW2 3271   1.669   0.631   2.264 -0.0536  0.9753  1.5716
 1010SOL     OW 3272   2.221   1.062   1.520 -0.0511  0.2822 -0.6296
 1010SOL    HW1 3273   2.143   1.011   1.540  0.4848 -0.3026  0.0233
 1010SOL    HW2 3274   2.211   1.086   1.428 -0.5690 -0.5395 -0.7937
 1011SOL     OW 3275   0.363   2.632   2.187 -0.3290  0.3458 -0.3048
 1011SOL    HW1 3276   0.331   2.624   2.277 -2.3242 -0.8211 -1.0426
 1011SOL    HW2 3277   0.384   2.542   2.162  1.8134  0.8535 -0.5117
 1012SOL     OW 3278   4.168   3.327   2.597 -0.2290  0.8285  0.5004
 1012SOL    HW1 3279   4.178   3.362   2.509 -0.4113 -0.7038 -0.1440
 1012SOL    HW2 3280   4.090   3.372   2.631 -1.0600  0.3150 -0.6846
 1013SOL     OW 3281   2.252   4.212   0.585  0.3569  0.1695 -0.0382
 1013SOL    HW1 3282   2.212   4.245   0.665 -0.0467  1.6390 -0.8277
 1013SOL    HW2 3283   2.188   4.230   0.516  1.5699  0.8701 -1.0249
 1014SOL     OW 3284   0.265   0.992   0.762 -0.3661  0.6168  0.1274
 1014SOL    HW1 3285   0.257   1.010   0.668 -1.9755  0.4518  0.2056
 1014SOL    HW2 3286   0.190   0.937   0.783  0.8762 -0.7603  1.2101
 1015SOL     OW 3287   3.443   0.812   0.542 -0.1360 -0.2598  0.4415
 1015SOL    HW1 3288   3.501   0.758   0.489 -0.4036 -0.2736  0.1668
 1015SOL    HW2 3289   3.407   0.753   0.607  0.2121 -0.2372  0.6593
 1016SOL     OW 3290   1.112   4.058   1.751  0.1314 -0.2530 -0.2552
 1016SOL    HW1 3291   1.070   4.133   1.793  2.8951  2.1104 -1.3764
 1016SOL    HW2 3292   1.158   4.013   1.822 -1.3317 -0.7744  0.3858
 1017SOL     OW 3293   1.488   4.143   2.751  0.6774  0.6892  0.0315
 1017SOL    HW1 3294   1.561   4.180   2.802  1.4519 -0.4928 -0.1853
 1017SOL    HW2 3295   1.412   4.193   2.779  1.4161  1.3331  0.9564
 1018SOL     OW 3296   2.874   4.311   0.313 -0.5031  0.4302 -1.0937
 1018SOL    HW1 3297   2.846   4.245   0.377 -1.1754 -0.5285 -2.3367
 1018SOL    HW2 3298   2.961   4.281   0.285 -0.3288  0.6942 -0.8355
 1019SOL     OW 3299   4.285   2.053   2.474  0.4006 -0.5328  0.1001
 1019SOL    HW1 3300   4.291   2.090   2.562  1.2476  1.3748 -0.7165
 1019SOL    HW2 3301   4.369   2.009   2.461  0.0656 -1.2918  0.4165
 1020SOL     OW 3302   4.255   0.595   1.988  0.3737  0.1100 -0.2138
 1020SOL    HW1 3303   4.308   0.621   1.913 -1.4487 -2.3498 -2.5197
 1020SOL    HW2 3304   4.196   0.527   1.955 -0.1684 -1.5607  3.5602
 1021SOL     OW 3305   3.809   0.450   0.523 -0.3840 -0.1546  0.0585
 1021SOL    HW1 3306   3.742   0.442   0.455  1.7780 -1.1244 -2.1027
 1021SOL    HW2 3307   3.792   0.375   0.581 -1.2722 -0.2596 -0.3120
 1022SOL     OW 3308   3.938   3.832   0.724  0.0960 -0.1663 -0.6109
 1022SOL    HW1 3309   3.961   3.884   0.647  0.2159  0.8760  0.1007
 1022SOL    HW2 3310   3.987   3.873   0.795 -1.5101  0.1113  0.3683
 1023SOL     OW 3311   0.523   3.342   0.035  0.0195  0.4207  0.1796
 1023SOL    HW1 3312   0.452   3.320  -0.025  0.3745  3.4786 -1.5789
 1023SOL    HW2 3313   0.488   3.412   0.090  0.8510  0.1641  1.0647
 1024SOL     OW 3314   4.314   2.097   1.601  0.0282  0.1055 -0.1606
 1024SOL    HW1 3315   4.237   2.150   1.618 -1.1494 -1.6438  0.2248
 1024SOL    HW2 3316   4.378   2.125   1.667 -1.4478 -0.6510  1.6690
 1025SOL     OW 3317   1.068   3.395   2.507  0.1833  0.2298 -0.2796
 1025SOL    HW1 3318   1.002   3.380   2.440 -0.0316  1.5872 -0.3971
 1025SOL    HW2 3319   1.097   3.307   2.533 -1.2912 -0.3675 -0.5793
 1026SOL     OW 3320   1.997   3.685   1.842  0.0256 -0.2001 -0.3540
 1026SOL    HW1 3321   2.009   3.637   1.924  0.2617 -0.2305 -0.4069
 1026SOL    HW2 3322   1.961   3.620   1.782  0.8329 -0.4480 -0.5756
 1027SOL     OW 3323   4.356   1.120   0.445 -0.5084  0.0257 -0.2155
 1027SOL    HW1 3324   4.300   1.046   0.423 -3.5138  1.4632  1.8173
 1027SOL    HW2 3325   4.440   1.081   0.468 -1.6386 -2.6399 -0.2534
 1028SOL     OW 3326   3.387   3.854   1.061  0.3494  0.2515  0.1179
 1028SOL    HW1 3327   3.331   3.922   1.099  2.4536  0.9410  2.1925
 1028SOL    HW2 3328   3.387   3.784   1.127  0.2740 -0.6463 -0.8200
 1029SOL     OW 3329   1.984   2.478   0.562  0.1718 -0.2751 -0.0082
 1029SOL    HW1 3330   2.075   2.468   0.589  0.6363 -1.2442 -1.8233
 1029SOL    HW2 3331   1.953   2.388   0.548 -0.9285  0.0690  0.1023
 1030SOL     OW 3332   4.012   1.882   2.154  0.4041 -0.3918  0.4915
 1030SOL    HW1 3333   3.923   1.919   2.157  0.5008 -0.0005 -0.9839
 1030SOL    HW2 3334   4.022   1.852   2.064  1.1615 -1.9978  1.0784
 1031SOL     OW 3335   3.310   2.516   0.774 -0.3890 -0.7253  0.4865
 1031SOL    HW1 3336   3.329   2.430   0.737  0.2306 -0.5532  0.3910
 1031SOL    HW2 3337   3.238   2.501   0.834 -0.1923 -1.3363  0.5779
 1032SOL     OW 3338   2.914   0.372   1.759 -0.1113 -0.3166 -0.3547
 1032SOL    HW1 3339   2.882   0.461   1.775  0.0579 -0.2974 -0.1155
 1032SOL    HW2 3340   3.006   0.384   1.736  0.5709 -0.5887  1.9820
 1033SOL     OW 3341   1.463   3.816   0.258  0.3735  0.8722  0.4428
 1033SOL    HW1 3342   1.485   3.843   0.347  2.0295  0.5631  0.1648
 1033SOL    HW2 3343   1.515   3.873   0.202 -0.0034  0.4982 -0.2996
 1034SOL     OW 3344   3.492   0.863   2.470 -0.2118 -0.4075  0.6362
 1034SOL    HW1 3345   3.516   0.778   2.434 -1.2078 -1.8716  3.1848
 1034SOL    HW2 3346   3.572   0.893   2.514  0.2476  0.1975 -0.5634
 1035SOL     OW 3347   3.737   0.463   2.409 -0.2134  0.4117 -0.5255
 1035SOL    HW1 3348   3.793   0.464   2.486  0.5709 -0.5732 -1.0436
 1035SOL    HW2 3349   3.753   0.377   2.370 -1.3122  0.5240 -1.2633
 1036SOL     OW 3350   0.723   1.371   3.056  0.7959  0.0020  0.4261
 1036SOL    HW1 3351   0.664   1.297   3.067  0.4174  0.1370 -0.5841
 1036SOL    HW2 3352   0.665   1.446   3.043  1.1813  0.4108  0.9937
 1037SOL     OW 3353   4.343   2.702   0.012 -0.4441  0.5055  0.7676
 1037SOL    HW1 3354   4.409   2.727   0.077 -0.0258 -2.8774  1.8164
 1037SOL    HW2 3355   4.272   2.764   0.025  1.0575  2.0731  2.0226
 1038SOL     OW 3356   2.356   0.723   0.935  0.2615 -0.7272 -0.2171
 1038SOL    HW1 3357   2.430   0.777   0.960 -0.1765  0.0557 -0.5947
 1038SOL    HW2 3358   2.321   0.691   1.018  1.1610 -1.3179 -0.0451
 1039SOL     OW 3359   0.870   0.496   1.728 -0.3008  0.0968  0.0963
 1039SOL    HW1 3360   0.817   0.528   1.801  0.0298 -0.5726  0.6357
 1039SOL    HW2 3361   0.909   0.575   1.690 -0.3840  0.4338  0.7077
 1040SOL     OW 3362   2.344   2.484   0.270  0.0806 -0.3243 -0.0281
 1040SOL    HW1 3363   2.409   2.547   0.238 -0.0694  0.4306  1.0918
 1040SOL    HW2 3364   2.266   2.537   0.288 -1.0453 -1.2655 -1.7572
 1041SOL     OW 3365   4.288   2.596   0.976  0.9942  0.6485  0.4448
 1041SOL    HW1 3366   4.253   2.683   0.992 -2.4485 -0.3684 -0.7898
 1041SOL    HW2 3367   4.224   2.537   1.016  3.4179 -1.3813  1.5817
 1042SOL     OW 3368   1.745   0.062   1.056  0.1848 -0.3817  0.2816
 1042SOL    HW1 3369   1.703   0.076   1.141 -2.8686  0.4132 -1.2094
 1042SOL    HW2 3370   1.746  -0.033   1.045 -1.6770 -0.4345  0.2339
 1043SOL     OW 3371   3.496   1.386   1.158  0.3573 -0.0033 -0.5833
 1043SOL    HW1 3372   3.488   1.478   1.180 -0.6924 -0.2945  0.3309
 1043SOL    HW2 3373   3.514   1.385   1.064  0.2084  1.1185 -0.6341
 1044SOL     OW 3374   1.082   1.084   0.645 -0.0119 -0.5687  0.6102
 1044SOL    HW1 3375   0.994   1.096   0.681 -0.9795 -0.5080 -1.6067
 1044SOL    HW2 3376   1.134   1.154   0.686 -0.5957 -1.4081  2.9625
 1045SOL     OW 3377   1.507   2.522   1.703 -0.4043  0.3751  0.0674
 1045SOL    HW1 3378   1.435   2.512   1.641 -0.9642  0.7708  0.6362
 1045SOL    HW2 3379   1.485   2.601   1.753 -0.8061 -0.7960  1.8484
 1046SOL     OW 3380   4.326   1.191   1.063 -0.2701 -0.0162  0.8450
 1046SOL    HW1 3381   4.336   1.277   1.020  0.4293  0.1507  1.3138
 1046SOL    HW2 3382   4.416   1.165   1.083 -0.3699 -1.4616 -0.4381
 1047SOL     OW 3383   1.459   1.645   1.374  0.2598  0.1365 -0.0336
 1047SOL    HW1 3384   1.393   1.648   1.305 -1.9574  2.7937  1.9388
 1047SOL    HW2 3385   1.531   1.697   1.340  0.0877 -0.3019 -1.1080
 1048SOL     OW 3386   4.013   1.199   0.454  0.3963  0.1971  0.0471
 1048SOL    HW1 3387   4.092   1.228   0.407  0.5591 -0.1558  0.1009
 1048SOL    HW2 3388   3.949   1.268   0.436  1.1031  1.1693  1.0750
 1049SOL     OW 3389   0.052   3.344   3.133 -0.4833  0.1816 -0.1892
 1049SOL    HW1 3390   0.036   3.347   3.039 -1.0018 -1.5508 -0.1943
 1049SOL    HW2 3391   0.117   3.275   3.145  1.0839  1.7110  0.5867
 1050SOL     OW 3392   1.493   1.833   1.096  0.7515 -0.0861 -0.2282
 1050SOL    HW1 3393   1.478   1.922   1.065  0.9217 -0.0196 -0.1194
 1050SOL    HW2 3394   1.405   1.799   1.115  0.7310  0.3439  0.5167
 1051SOL     OW 3395   3.986   1.516   2.346  0.0541 -0.0623 -0.3326
 1051SOL    HW1 3396   3.976   1.588   2.408 -2.0333 -0.4306 -0.1883
 1051SOL    HW2 3397   4.055   1.546   2.286 -0.8206  2.1366 -0.3581
 1052SOL     OW 3398   3.695   1.354   0.200 -0.3091 -0.7895  0.7721
 1052SOL    HW1 3399   3.734   1.343   0.113 -1.9572 -1.1636  0.0507
 1052SOL    HW2 3400   3.666   1.266   0.225 -0.2087 -0.6139  1.5342
 1053SOL     OW 3401   4.331   2.246   0.009 -0.1409 -0.0593  0.5269
 1053SOL    HW1 3402   4.294   2.207   0.088 -1.3666 -1.4339 -0.6685
 1053SOL    HW2 3403   4.411   2.289   0.039  0.4455 -2.1510  2.2098
 1054SOL     OW 3404   3.302   3.625   0.877 -0.4364 -0.2705 -0.1968
 1054SOL    HW1 3405   3.232   3.587   0.931 -1.1210 -0.7187 -1.3336
 1054SOL    HW2 3406   3.371   3.649   0.939 -0.3116 -2.6457  0.7003
 1055SOL     OW 3407   2.119   2.263   1.288 -0.7170  0.1303 -0.4551
 1055SOL    HW1 3408   2.041   2.289   1.337 -1.4392 -1.2249 -0.8100
 1055SOL    HW2 3409   2.088   2.193   1.229  0.9835 -1.3151  0.2514
 1056SOL     OW 3410   3.019   1.351   1.707 -0.2794 -0.4378 -0.0384
 1056SOL    HW1 3411   2.995   1.431   1.755 -1.2203 -2.3849  3.0177
 1056SOL    HW2 3412   3.084   1.308   1.762  0.0706 -1.8897 -1.5011
 1057SOL     OW 3413   0.447   0.842   2.352 -0.9686  0.1170 -0.4180
 1057SOL    HW1 3414   0.441   0.925   2.399  0.3819 -0.5223  0.9822
 1057SOL    HW2 3415   0.372   0.842   2.293 -1.3605  2.0314  0.0144
 1058SOL     OW 3416   0.906   0.450   2.132  0.1482 -0.5740  0.3718
 1058SOL    HW1 3417   0.844   0.498   2.077  1.4843  0.3194 -0.4152
 1058SOL    HW2 3418   0.925   0.370   2.082  1.3260  0.2152 -0.4979
 1059SOL     OW 3419   2.378   1.806   1.896  0.0508  0.2408 -0.4741
 1059SOL    HW1 3420   2.283   1.815   1.903  0.1978  1.4114  0.3484
 1059SOL    HW2 3421   2.405   1.773   1.982  0.3664 -0.3746 -0.8042
 1060SOL     OW 3422   2.832   1.870   1.224  0.0050 -0.0570 -0.2216
 1060SOL    HW1 3423   2.791   1.792   1.187  0.8571  0.1989 -1.8487
 1060SOL    HW2 3424   2.769   1.940   1.207 -0.0977 -0.1384 -0.1739
 1061SOL     OW 3425   0.520   4.001   2.420  0.0546 -0.2785  0.2809
 1061SOL    HW1 3426   0.536   4.070   2.485  1.9291 -2.0933  1.9236
 1061SOL    HW2 3427   0.481   3.930   2.471  0.2585 -1.2380 -0.8605
 1062SOL     OW 3428   2.773   1.474   0.468 -0.2601 -0.3664  0.1628
 1062SOL    HW1 3429   2.796   1.566   0.460 -1.4519  0.0540  1.1514
 1062SOL    HW2 3430   2.717   1.470   0.546 -2.1692 -1.5337 -1.1841
 1063SOL     OW 3431   1.340   0.869   0.602  0.2162 -0.3105  0.3447
 1063SOL    HW1 3432   1.416   0.810   0.592  0.6535  0.2566  0.2958
 1063SOL    HW2 3433   1.371   0.953   0.569  0.0456  0.3067  1.7192
 1064SOL     OW 3434   2.334   1.472   0.530  0.8945 -0.3115 -0.0612
 1064SOL    HW1 3435   2.268   1.408   0.503  2.0057 -1.2284 -0.6771
 1064SOL    HW2 3436   2.377   1.433   0.606 -0.0942  0.8592  1.1597
 1065SOL     OW 3437   4.027   1.961   2.870  0.2459 -0.0058  0.0099
 1065SOL    HW1 3438   4.074   2.033   2.912 -0.6246 -0.1535  1.3004
 1065SOL    HW2 3439   3.947   2.000   2.838 -0.7431 -0.5567  1.6762
 1066SOL     OW 3440   1.999   1.736   0.419  0.5236  0.0754 -0.3138
 1066SOL    HW1 3441   2.093   1.747   0.435  0.6417  1.2968 -1.5734
 1066SOL    HW2 3442   1.971   1.672   0.484  2.3005 -0.6224 -0.1589
 1067SOL     OW 3443   3.583   4.076   1.896  0.0865  0.4786  0.6209
 1067SOL    HW1 3444   3.587   4.166   1.864  0.7395  0.3827  0.4147
 1067SOL    HW2 3445   3.564   4.024   1.817  2.2523  0.1824  0.2449
 1068SOL     OW 3446   3.234   0.862   0.308 -0.2007  0.0958 -0.6649
 1068SOL    HW1 3447   3.288   0.783   0.297 -0.2806 -0.0119 -0.2960
 1068SOL    HW2 3448   3.231   0.901   0.220  2.4035  1.3809 -0.2892
 1069SOL     OW 3449   1.749   0.975   0.092  0.0776 -0.6363  0.0827
 1069SOL    HW1 3450   1.833   0.966   0.138 -0.1112 -1.9491  0.1996
 1069SOL    HW2 3451   1.690   1.014   0.156  0.7654  1.0228 -0.2300
 1070SOL     OW 3452   2.657   1.688   1.109 -0.4856  0.2949  0.1061
 1070SOL    HW1 3453   2.577   1.730   1.078 -1.2996 -1.5345 -0.4108
 1070SOL    HW2 3454   2.639   1.594   1.102  1.5199 -0.1625  0.4714
 1071SOL     OW 3455   3.788   2.305   1.404 -0.1551 -0.1999 -0.3714
 1071SOL    HW1 3456   3.767   2.303   1.310 -0.5126 -0.8259 -0.2839
 1071SOL    HW2 3457   3.765   2.217   1.435  0.2563 -0.0925  0.2405
 1072SOL     OW 3458   2.060   0.192   2.235  0.4357 -0.4797  0.5013
 1072SOL    HW1 3459   2.067   0.101   2.205  1.2364 -0.3723  0.3588
 1072SOL    HW2 3460   2.115   0.242   2.174 -2.1073  0.5253 -1.1698
 1073SOL     OW 3461   1.154   0.869   2.930 -0.0015 -0.4763  0.0880
 1073SOL    HW1 3462   1.180   0.887   2.839 -0.0217 -0.3876  0.0995
 1073SOL    HW2 3463   1.228   0.821   2.967  0.5073  0.4869  0.3631
 1074SOL     OW 3464   0.811   0.206   2.938  0.2762 -0.2846  0.6765
 1074SOL    HW1 3465   0.743   0.155   2.983  0.0512 -0.6981 -0.1194
 1074SOL    HW2 3466   0.882   0.143   2.925  0.0320 -0.3897 -0.2298
 1075SOL     OW 3467   3.171   1.274   1.910 -0.2832 -0.1219  0.3862
 1075SOL    HW1 3468   3.243   1.219   1.879 -1.5839 -2.0319  0.5665
 1075SOL    HW2 3469   3.212   1.334   1.972  1.2144 -0.8875  0.1809
 1076SOL     OW 3470  -0.006   1.508   2.752 -0.4002 -0.1918  0.1863
 1076SOL    HW1 3471   0.045   1.565   2.694 -2.2865  2.0305  0.5679
 1076SOL    HW2 3472  -0.023   1.430   2.701  0.2966  0.5670 -1.2633
 1077SOL     OW 3473   3.646   0.344   0.319 -0.3497  0.2494 -0.0014
 1077SOL    HW1 3474   3.551   0.355   0.330  0.0817  4.2245  1.1446
 1077SOL    HW2 3475   3.670   0.406   0.251  1.4449 -0.9336 -0.5153
 1078SOL     OW 3476   0.538   1.092   3.094 -0.0664  0.1700  0.6141
 1078SOL    HW1 3477   0.623   1.047   3.089 -0.4568 -0.5316  0.0669
 1078SOL    HW2 3478   0.502   1.083   3.005 -1.4365 -0.9778  1.2514
 1079SOL     OW 3479   1.205   2.688   2.824 -0.0012  0.0834  0.1532
 1079SOL    HW1 3480   1.204   2.733   2.739  0.2699 -2.6425 -1.4071
 1079SOL    HW2 3481   1.116   2.655   2.835  0.4392 -1.2064 -0.0343
 1080SOL     OW 3482   3.520   4.016   2.524 -0.4795 -0.0129  0.2004
 1080SOL    HW1 3483   3.453   4.041   2.460 -2.3752  1.0552  2.4206
 1080SOL    HW2 3484   3.470   3.977   2.596  1.7858 -3.8473 -0.0741
 1081SOL     OW 3485   0.224   4.122   2.226 -0.6105 -0.1336  0.4999
 1081SOL    HW1 3486   0.266   4.043   2.191 -2.5960 -2.0398  2.0466
 1081SOL    HW2 3487   0.132   4.113   2.200 -0.9973  1.3986  1.2309
 1082SOL     OW 3488   2.868   1.271   0.793  0.1563 -0.5603 -0.0252
 1082SOL    HW1 3489   2.928   1.207   0.830 -0.3739 -1.5485 -0.8253
 1082SOL    HW2 3490   2.912   1.301   0.713  1.6801  2.1666  1.6726
 1083SOL     OW 3491   1.169   0.593   2.693  0.2928  0.4678 -0.1288
 1083SOL    HW1 3492   1.131   0.676   2.663  0.8555  0.6699 -0.2901
 1083SOL    HW2 3493   1.095   0.546   2.733  0.3900  2.0118  2.0985
 1084SOL     OW 3494   4.070   4.348   1.431 -0.2385  0.2082  0.5356
 1084SOL    HW1 3495   4.109   4.261   1.417  1.4082  1.1418 -1.2096
 1084SOL    HW2 3496   4.008   4.358   1.359 -3.4053 -0.9766  2.9051
 1085SOL     OW 3497   3.622   1.408   0.926  0.2964 -0.1346  0.1610
 1085SOL    HW1 3498   3.717   1.410   0.941  0.4890 -1.3272 -0.7891
 1085SOL    HW2 3499   3.612   1.368   0.840 -1.1006 -0.6542  0.5385
 1086SOL     OW 3500   0.738   0.863   0.858 -0.1968  0.4533  0.1455
 1086SOL    HW1 3501   0.754   0.792   0.919 -0.1951  1.0740  0.8877
 1086SOL    HW2 3502   0.651   0.895   0.880 -1.0369 -0.5671 -1.4869
 1087SOL     OW 3503   1.678   3.958   1.183  0.1780  0.1314  0.3320
 1087SOL    HW1 3504   1.618   3.950   1.109 -0.2720 -1.6900  0.8567
 1087SOL    HW2 3505   1.765   3.948   1.144 -0.0662 -1.1008  0.0691
 1088SOL     OW 3506   0.223   4.066   2.616 -0.2813 -0.6396  0.7321
 1088SOL    HW1 3507   0.137   4.103   2.634 -0.3912 -0.1489 -0.6379
 1088SOL    HW2 3508   0.218   4.037   2.525  1.4536  0.8507  0.0792
 1089SOL     OW 3509   2.734   0.115   0.444 -0.2704  0.7090 -0.7177
 1089SOL    HW1 3510   2.803   0.060   0.408  0.3503  0.9808  0.0354
 1089SOL    HW2 3511   2.655   0.088   0.397 -0.2866 -1.8532  0.5725
 1090SOL     OW 3512   3.230   2.466   2.339 -0.1231 -0.2912 -0.1992
 1090SOL    HW1 3513   3.137   2.448   2.328 -0.6786  2.2919 -0.1491
 1090SOL    HW2 3514   3.236   2.511   2.423  0.8804  1.3613 -1.1237
 1091SOL     OW 3515   2.670   1.547   1.597 -0.7536  0.5087 -0.1964
 1091SOL    HW1 3516   2.759   1.577   1.614  0.2257 -1.8405 -0.9206
 1091SOL    HW2 3517   2.675   1.452   1.599 -2.3813  0.1504 -4.3814
 1092SOL     OW 3518   0.962   3.940   0.628  0.0471  0.2168  0.1942
 1092SOL    HW1 3519   0.990   3.900   0.545 -1.0120 -0.4217  0.1309
 1092SOL    HW2 3520   0.874   3.973   0.610 -0.2731 -0.1108  1.1207
 1093SOL     OW 3521   2.233   2.327   1.557  0.3919 -0.2474  0.1514
 1093SOL    HW1 3522   2.175   2.294   1.489  0.5708 -0.0107 -0.1173
 1093SOL    HW2 3523   2.212   2.420   1.563 -1.6342 -0.7399  2.3871
 1094SOL     OW 3524   1.277   0.332   1.905 -0.6475 -0.1900 -0.0412
 1094SOL    HW1 3525   1.265   0.237   1.904 -1.9276 -0.0462  0.4138
 1094SOL    HW2 3526   1.191   0.367   1.927  0.6507  0.9205  4.0403
 1095SOL     OW 3527   2.015   0.577   2.119 -0.3872 -0.5311  0.1945
 1095SOL    HW1 3528   2.028   0.592   2.025 -0.3617 -1.7443 -0.0050
 1095SOL    HW2 3529   2.104   0.567   2.154 -0.4008 -0.1674  0.3402
 1096SOL     OW 3530   2.588   1.838   0.528  0.2136 -0.4524 -0.0456
 1096SOL    HW1 3531   2.623   1.782   0.597 -0.0063 -0.8251 -0.2312
 1096SOL    HW2 3532   2.664   1.861   0.475  0.0226 -2.4366 -1.2922
 1097SOL     OW 3533   2.036   1.540   1.856 -0.0458 -0.1957 -0.2062
 1097SOL    HW1 3534   2.057   1.460   1.808 -0.5868 -0.9430  0.7654
 1097SOL    HW2 3535   2.005   1.509   1.942  1.0339  1.0993  0.6849
 1098SOL     OW 3536   3.391   1.620   0.895 -0.3509  0.0434 -0.5310
 1098SOL    HW1 3537   3.341   1.698   0.916 -1.3921 -0.8625  0.4549
 1098SOL    HW2 3538   3.457   1.614   0.964  0.8132  0.9237 -1.5163
 1099SOL     OW 3539   1.262   0.860   1.157  0.0458 -0.1374  0.3276
 1099SOL    HW1 3540   1.206   0.798   1.109  1.3268 -0.5929 -0.6463
 1099SOL    HW2 3541   1.291   0.922   1.090 -1.3581  1.6914  1.3199
 1100SOL     OW 3542   3.006   0.640   1.264  0.4019  0.4318 -0.0801
 1100SOL    HW1 3543   3.067   0.714   1.262  1.0578 -0.0590  1.1480
 1100SOL    HW2 3544   2.922   0.679   1.290  0.8983  0.6555  1.2381
 1101SOL     OW 3545   0.755   0.037   0.398 -0.1722  0.0657 -0.2485
 1101SOL    HW1 3546   0.702  -0.009   0.333 -0.1121  0.5769 -0.6703
 1101SOL    HW2 3547   0.747  -0.015   0.478 -0.9092 -0.1287 -0.4432
 1102SOL     OW 3548   3.768   1.998   2.080 -0.5658 -0.0077 -0.1879
 1102SOL    HW1 3549   3.742   1.992   1.988  0.8884 -2.5757 -0.5469
 1102SOL    HW2 3550   3.699   1.951   2.127 -1.0112  0.8030 -0.0161
 1103SOL     OW 3551   0.751   0.238   0.204 -0.4173 -0.1872  0.0094
 1103SOL    HW1 3552   0.842   0.263   0.216 -0.3384 -1.0014  1.2782
 1103SOL    HW2 3553   0.739   0.161   0.259 -0.7161 -2.8401 -3.3749
 1104SOL     OW 3554   4.091   1.666   1.949  0.0009 -0.2284 -0.3066
 1104SOL    HW1 3555   4.073   1.589   1.895  1.8143 -1.9153  1.3533
 1104SOL    HW2 3556   4.171   1.703   1.911 -1.4209  1.5569 -1.7473
 1105SOL     OW 3557   0.769   2.342   0.668  0.6188  0.2605  0.1291
 1105SOL    HW1 3558   0.703   2.274   0.671  1.4803 -0.6079 -0.1638
 1105SOL    HW2 3559   0.770   2.371   0.577  1.8681 -0.9961 -0.2919
 1106SOL     OW 3560   1.542   1.458   2.790  0.4629 -0.5295  0.1907
 1106SOL    HW1 3561   1.487   1.416   2.724 -1.1164  2.9200 -0.9640
 1106SOL    HW2 3562   1.629   1.462   2.751  0.2737 -1.3110 -0.3137
 1107SOL     OW 3563   3.194   0.596   1.947  0.0540 -0.1791 -0.3919
 1107SOL    HW1 3564   3.187   0.524   2.010 -2.4445 -0.9263 -1.3984
 1107SOL    HW2 3565   3.186   0.676   2.001  1.0180 -0.6813  0.5334
 1108SOL     OW 3566   1.951   2.643   3.033  0.3401  0.9120  0.0714
 1108SOL    HW1 3567   2.040   2.676   3.046  1.3173 -1.1592 -0.7589
 1108SOL    HW2 3568   1.919   2.624   3.121  2.0968 -1.4676  0.3037
 1109SOL     OW 3569   1.581   0.550   0.802 -0.1914  0.1142 -0.3241
 1109SOL    HW1 3570   1.621   0.477   0.754  0.6841 -0.3118  0.9967
 1109SOL    HW2 3571   1.502   0.512   0.841  0.3988 -0.2175  0.5730
 1110SOL     OW 3572   3.472   0.199   2.243  0.1352  0.1658  0.0832
 1110SOL    HW1 3573   3.466   0.270   2.178 -0.2491  1.6601  1.6819
 1110SOL    HW2 3574   3.422   0.127   2.203 -0.9855  1.3960 -0.8552
 1111SOL     OW 3575   2.618   2.342   2.976  0.4999 -0.1263  0.1639
 1111SOL    HW1 3576   2.606   2.413   2.912  0.1117  0.1232  0.5116
 1111SOL    HW2 3577   2.530   2.316   3.000  0.4641 -3.2870 -2.6887
 1112SOL     OW 3578   3.745   0.190   2.369  0.1201 -0.3486  0.1358
 1112SOL    HW1 3579   3.659   0.185   2.327  0.5943 -0.5098 -0.8461
 1112SOL    HW2 3580   3.730   0.159   2.458 -1.3222  1.8373  0.7578
 1113SOL     OW 3581   3.562   3.905   0.175  0.6994  0.2625  0.1839
 1113SOL    HW1 3582   3.568   3.817   0.137  1.1752  0.6474 -0.6595
 1113SOL    HW2 3583   3.556   3.890   0.269  0.8470 -0.6731  0.0552
 1114SOL     OW 3584   3.558   2.695   0.700  0.0182 -0.3404 -1.5372
 1114SOL    HW1 3585   3.468   2.703   0.733  0.3211 -1.1355 -0.4543
 1114SOL    HW2 3586   3.565   2.604   0.673  0.1054  0.0500 -2.8837
 1115SOL     OW 3587   2.336   1.203   1.047 -0.3716  0.1674 -0.0525
 1115SOL    HW1 3588   2.365   1.279   1.098 -3.1694  1.4049 -0.1485
 1115SOL    HW2 3589   2.332   1.131   1.110 -0.1372  0.7323  0.6106
 1116SOL     OW 3590   3.448   0.109   1.067  0.6731 -0.7617  0.2741
 1116SOL    HW1 3591   3.526   0.056   1.052 -1.1404 -3.0623 -1.8620
 1116SOL    HW2 3592   3.425   0.093   1.159  0.6819 -3.0291 -0.0786
 1117SOL     OW 3593   2.909   0.834   0.474  0.3315  0.4044  0.0803
 1117SOL    HW1 3594   3.000   0.810   0.492  0.2876  0.8084  0.9471
 1117SOL    HW2 3595   2.876   0.867   0.558 -1.0260 -0.9793  0.1360
 1118SOL     OW 3596   3.081   1.457   1.006  0.6784 -0.3685  0.3649
 1118SOL    HW1 3597   3.019   1.388   1.029  1.2170 -0.4992  1.5187
 1118SOL    HW2 3598   3.027   1.531   0.979 -0.1282  0.1405  3.0598
 1119SOL     OW 3599   1.622   0.128   0.816  0.3597 -0.6279 -0.2003
 1119SOL    HW1 3600   1.664   0.100   0.898 -1.3366 -1.1416  0.5451
 1119SOL    HW2 3601   1.537   0.163   0.844 -0.5995 -1.5699 -1.8104
 1120SOL     OW 3602   2.898   3.815   0.536 -0.4830  0.5286 -0.0370
 1120SOL    HW1 3603   2.815   3.766   0.546 -1.0727  1.5689  0.3051
 1120SOL    HW2 3604   2.891   3.858   0.451  0.1908 -0.2468 -0.4972
 1121SOL     OW 3605   3.960   3.494   1.042  0.0845 -0.2145  0.3452
 1121SOL    HW1 3606   3.992   3.441   0.969  1.6209 -0.2273  0.9831
 1121SOL    HW2 3607   3.869   3.466   1.054  0.1273 -0.9584 -0.8757
 1122SOL     OW 3608   3.922   3.877   2.920 -0.6480  0.1197 -0.4255
 1122SOL    HW1 3609   3.923   3.891   3.014  0.7504 -2.0179 -0.0728
 1122SOL    HW2 3610   4.012   3.856   2.897 -1.0798 -0.0411 -2.1465
 1123SOL     OW 3611   3.106   4.125   2.755  0.1141 -0.2855 -0.2807
 1123SOL    HW1 3612   3.074   4.081   2.677 -0.0495 -1.3646  0.3748
 1123SOL    HW2 3613   3.192   4.159   2.730  0.6618 -1.7963 -0.5535
 1124SOL     OW 3614   4.111   0.277   3.000  0.4581  0.5053 -0.2445
 1124SOL    HW1 3615   4.177   0.215   2.970  2.1547  2.9948 -2.0265
 1124SOL    HW2 3616   4.159   0.341   3.053 -0.7190  1.6519 -0.4866
 1125SOL     OW 3617   2.789   0.332   2.199 -0.1632 -0.4501 -0.3360
 1125SOL    HW1 3618   2.713   0.329   2.257  0.9080 -0.8400  1.0905
 1125SOL    HW2 3619   2.830   0.246   2.209  1.5322  0.4178  0.4175
 1126SOL     OW 3620   1.123   3.875   2.766  0.1516  0.3689 -0.3611
 1126SOL    HW1 3621   1.061   3.813   2.728  2.1346 -2.3499  0.5424
 1126SOL    HW2 3622   1.102   3.876   2.859  0.2427  0.9175 -0.3455
 1127SOL     OW 3623   1.862   2.953   0.760  0.4312 -0.5253  0.0165
 1127SOL    HW1 3624   1.780   2.986   0.723 -0.0684 -0.0266  1.4899
 1127SOL    HW2 3625   1.875   2.868   0.719 -0.1064 -0.0232 -1.2393
 1128SOL     OW 3626   4.026   2.043   1.379 -0.9438 -0.0713  0.0151
 1128SOL    HW1 3627   4.056   2.128   1.347 -2.4441  0.5024  0.0208
 1128SOL    HW2 3628   3.947   2.026   1.328 -0.4371 -1.6773 -0.2809
 1129SOL     OW 3629   3.525   0.159   3.067  0.0491 -0.5404  0.3337
 1129SOL    HW1 3630   3.535   0.250   3.038 -0.0709 -1.3481 -2.5021
 1129SOL    HW2 3631   3.608   0.117   3.043  0.1653 -1.1874  1.7712
 1130SOL     OW 3632   4.015   1.316   2.149 -0.1714  0.4399 -0.3610
 1130SOL    HW1 3633   3.967   1.392   2.181 -1.2727  0.1135 -1.1468
 1130SOL    HW2 3634   3.948   1.262   2.106  0.2947 -1.6909  1.3991
 1131SOL     OW 3635   0.305   2.158   0.097  0.1135 -0.5817 -0.3724
 1131SOL    HW1 3636   0.363   2.228   0.129 -1.5143  0.0421  1.3964
 1131SOL    HW2 3637   0.252   2.200   0.029  1.1274 -0.9382 -1.4173
 1132SOL     OW 3638   0.146   3.715   2.550  0.4849 -0.3426  0.4551
 1132SOL    HW1 3639   0.233   3.751   2.564  0.1991  0.7686 -0.4253
 1132SOL    HW2 3640   0.110   3.769   2.479 -1.0659 -0.5139  1.0871
 1133SOL     OW 3641   1.917   1.309   2.865 -1.0171  0.7030 -0.2408
 1133SOL    HW1 3642   1.904   1.249   2.938 -0.6993 -1.0818 -1.5540
 1133SOL    HW2 3643   2.001   1.352   2.884 -0.2809 -0.7058 -0.1457
 1134SOL     OW 3644   2.627   1.799   2.321  0.0118 -0.9332 -0.1387
 1134SOL    HW1 3645   2.656   1.811   2.411  2.7704 -1.2242 -0.8988
 1134SOL    HW2 3646   2.621   1.703   2.310  0.2457 -0.9165 -0.4286
 1135SOL     OW 3647   0.552   3.240   0.395 -0.0151  0.3474 -0.3248
 1135SOL    HW1 3648   0.642   3.211   0.405  0.6187  2.0261 -0.8838
 1135SOL    HW2 3649   0.509   3.213   0.476  1.3106  0.6606  0.5076
 1136SOL     OW 3650   1.414   0.695   2.672  0.4220  0.1235  0.5791
 1136SOL    HW1 3651   1.428   0.735   2.758 -0.8226  0.7863  0.4991
 1136SOL    HW2 3652   1.328   0.653   2.679  0.4983 -0.1824 -0.2127
 1137SOL     OW 3653   1.944   1.068   2.501  0.4182  0.4457  0.4141
 1137SOL    HW1 3654   1.953   1.027   2.415 -0.0322 -0.4838  0.7967
 1137SOL    HW2 3655   2.000   1.016   2.558 -1.1103 -0.4457  1.1620
 1138SOL     OW 3656   1.906   0.948   1.287 -0.4865 -1.1431 -0.1425
 1138SOL    HW1 3657   1.817   0.920   1.265 -0.7846 -0.3145 -0.0317
 1138SOL    HW2 3658   1.962   0.896   1.230 -1.2259  0.8029 -2.8471
 1139SOL     OW 3659   0.365   4.139   1.166  0.3668 -0.5367  0.2189
 1139SOL    HW1 3660   0.450   4.178   1.145 -0.3428  1.8377  1.3600
 1139SOL    HW2 3661   0.371   4.116   1.258 -1.2063  2.8230  1.3012
 1140SOL     OW 3662   1.353   1.176   2.017  0.9604  0.2729  0.3216
 1140SOL    HW1 3663   1.444   1.149   2.033  0.5280 -2.1411 -0.8540
 1140SOL    HW2 3664   1.327   1.127   1.938 -0.7514  2.4269 -0.5486
 1141SOL     OW 3665   3.839   0.305   2.048 -0.2582  0.4529  0.6135
 1141SOL    HW1 3666   3.785   0.381   2.023 -3.4771 -1.2032  1.8865
 1141SOL    HW2 3667   3.872   0.326   2.135 -0.2743  0.7957  0.5383
 1142SOL     OW 3668   2.696   4.251   2.226 -0.5287 -0.2547 -0.1915
 1142SOL    HW1 3669   2.750   4.200   2.287  0.7368  0.2981 -0.8043
 1142SOL    HW2 3670   2.732   4.340   2.231 -0.6953 -0.1066 -1.3935
 1143SOL     OW 3671   0.521   2.658   1.532 -0.5377  0.2362  0.9737
 1143SOL    HW1 3672   0.428   2.675   1.516 -0.0441  0.2476 -2.7600
 1143SOL    HW2 3673   0.528   2.562   1.534 -0.4369  0.1744 -0.8126
 1144SOL     OW 3674   3.768   4.122   0.511  0.0088  0.0472  0.4274
 1144SOL    HW1 3675   3.694   4.094   0.565  0.5218 -0.4038  0.9036
 1144SOL    HW2 3676   3.735   4.198   0.463 -0.9840 -0.5619  0.1177
 1145SOL     OW 3677   4.307   3.926   1.643 -0.6207 -0.1207 -0.1461
 1145SOL    HW1 3678   4.325   3.875   1.564  1.5849  0.4088 -0.0451
 1145SOL    HW2 3679   4.377   3.903   1.704 -0.2554  2.0927  0.3524
 1146SOL     OW 3680   1.606   0.863   0.511 -0.2079 -0.0871 -0.1083
 1146SOL    HW1 3681   1.655   0.875   0.592 -2.1476  4.4144  0.7032
 1146SOL    HW2 3682   1.649   0.920   0.447 -1.3567 -0.0385 -0.8779
 1147SOL     OW 3683   3.754   2.109   2.856  0.2662 -0.0908 -0.0423
 1147SOL    HW1 3684   3.673   2.156   2.838 -1.5708 -2.7984  0.4173
 1147SOL    HW2 3685   3.785   2.146   2.939  0.3824  2.0019 -0.9682
 1148SOL     OW 3686   3.644   3.805   0.788  0.4966  0.3195 -0.1601
 1148SOL    HW1 3687   3.618   3.886   0.831  0.1518  0.1127  0.0268
 1148SOL    HW2 3688   3.732   3.822   0.755  1.6429 -0.1978  2.4186
 1149SOL     OW 3689   2.308   0.983   1.218  0.4076 -0.3311  0.0310
 1149SOL    HW1 3690   2.379   0.930   1.255  1.2738  1.2171  0.6834
 1149SOL    HW2 3691   2.236   0.921   1.207  2.2219 -2.3111 -1.9390
 1150SOL     OW 3692   4.269   2.488   1.776  0.1334 -0.2608  0.5412
 1150SOL    HW1 3693   4.285   2.505   1.869  0.8677 -2.0227  0.7791
 1150SOL    HW2 3694   4.250   2.394   1.772 -0.2910 -0.1332 -1.0484
 1151SOL     OW 3695   3.083   1.335   1.437  0.1098  0.5765 -0.1761
 1151SOL    HW1 3696   3.081   1.359   1.530  0.3282  0.3676 -0.1161
 1151SOL    HW2 3697   3.146   1.396   1.398 -0.0682  0.7398 -0.2098
 1152SOL     OW 3698   3.025   3.943   2.507 -0.9275  0.6505 -0.3497
 1152SOL    HW1 3699   3.032   3.940   2.411 -0.6420 -0.2952 -0.3150
 1152SOL    HW2 3700   3.051   3.855   2.535 -4.2509 -0.2757  0.3577
 1153SOL     OW 3701   2.876   0.709   0.255 -0.2196 -0.2947 -0.7994
 1153SOL    HW1 3702   2.788   0.671   0.259 -0.4420  0.3575  1.1922
 1153SOL    HW2 3703   2.891   0.746   0.342  1.6436  0.4918 -1.4035
 1154SOL     OW 3704   2.314   3.946   2.936 -0.1472  0.1009 -0.1167
 1154SOL    HW1 3705   2.380   3.976   2.998 -1.3646  1.0165  0.7609
 1154SOL    HW2 3706   2.233   3.989   2.963 -1.5615 -2.4426  0.0026
 1155SOL     OW 3707   0.100   1.324   2.249  0.1949  0.2598  0.0214
 1155SOL    HW1 3708   0.089   1.255   2.315  1.0601  0.7170  0.6548
 1155SOL    HW2 3709   0.104   1.405   2.299 -1.0457  0.8277 -0.7319
 1156SOL     OW 3710   2.615   1.269   0.324 -0.0744  0.1546  0.0159
 1156SOL    HW1 3711   2.665   1.331   0.378 -2.1390  0.0437  2.2329
 1156SOL    HW2 3712   2.563   1.324   0.266  1.4025  0.3018 -1.2407
 1157SOL     OW 3713   2.955   0.037   1.504  0.9912  0.5649  0.5434
 1157SOL    HW1 3714   2.969   0.015   1.412  0.9933  1.1607  0.3992
 1157SOL    HW2 3715   3.028  -0.005   1.551  0.9520  0.2058  0.2855
 1158SOL     OW 3716   2.744   2.255   2.400 -0.0756  0.6229 -0.0611
 1158SOL    HW1 3717   2.699   2.321   2.452 -1.3549 -0.0924 -0.2069
 1158SOL    HW2 3718   2.686   2.239   2.325  0.3903 -0.3760 -0.2321
 1159SOL     OW 3719   3.852   3.857   2.317 -0.2464  0.2462 -0.6245
 1159SOL    HW1 3720   3.856   3.953   2.321  0.6116  0.1785  0.3852
 1159SOL    HW2 3721   3.770   3.836   2.361  1.5650  0.3521  3.1186
 1160SOL     OW 3722   2.913   1.300   2.679  0.1647  0.0904 -0.3581
 1160SOL    HW1 3723   2.917   1.245   2.757 -0.0956  2.2140  1.2577
 1160SOL    HW2 3724   2.822   1.292   2.648 -0.1043  0.2804  0.3729
 1161SOL     OW 3725   3.364   3.913   0.785  0.7377 -0.1638  0.0340
 1161SOL    HW1 3726   3.287   3.871   0.747  0.4582  0.3384  0.0381
 1161SOL    HW2 3727   3.371   3.875   0.872  1.3969 -1.3411 -0.5029
 1162SOL     OW 3728   0.108   2.070   2.927 -0.7149  0.0905  0.4488
 1162SOL    HW1 3729   0.071   2.122   2.856 -1.5118  0.3349  1.0174
 1162SOL    HW2 3730   0.088   2.121   3.006  0.7616  0.1644  0.7958
 1163SOL     OW 3731   2.245   0.753   1.601 -0.1897  0.2947  0.0654
 1163SOL    HW1 3732   2.153   0.774   1.584 -0.1646  0.4762  0.1519
 1163SOL    HW2 3733   2.294   0.820   1.554 -0.1103  0.4900  0.4276
 1164SOL     OW 3734   2.338   3.124   0.973  0.6263  0.8841 -0.0083
 1164SOL    HW1 3735   2.358   3.045   1.024  2.5830  1.2373 -0.1678
 1164SOL    HW2 3736   2.269   3.097   0.913  0.8184 -0.5313  0.3770
 1165SOL     OW 3737   0.178   0.670   1.535  0.6057 -0.2945  0.2371
 1165SOL    HW1 3738   0.139   0.757   1.546  0.2006 -0.3434 -0.7353
 1165SOL    HW2 3739   0.256   0.686   1.481  0.1420 -0.6161 -0.5468
 1166SOL     OW 3740   2.180   3.322   2.419 -0.2853  0.2074  0.5474
 1166SOL    HW1 3741   2.105   3.340   2.476  0.2571  0.6676  1.1232
 1166SOL    HW2 3742   2.231   3.403   2.420  1.1404 -0.6432  1.5834
 1167SOL     OW 3743   1.589   3.474   3.042  0.5412  0.0521 -0.0707
 1167SOL    HW1 3744   1.646   3.541   3.004 -1.9209  1.3130 -1.7596
 1167SOL    HW2 3745   1.531   3.448   2.971 -0.6788 -1.5429  1.4281
 1168SOL     OW 3746   3.236   3.665   0.271  0.1694 -0.0023  0.0355
 1168SOL    HW1 3747   3.253   3.685   0.363 -0.3995  1.0111 -0.0555
 1168SOL    HW2 3748   3.166   3.726   0.247 -0.6300 -1.1922 -0.6988
 1169SOL     OW 3749   3.655   1.815   0.381 -0.0215 -0.0972  0.0206
 1169SOL    HW1 3750   3.563   1.792   0.388 -0.0098 -0.2688 -0.3871
 1169SOL    HW2 3751   3.671   1.824   0.287  0.1295  0.9369  0.1358
 1170SOL     OW 3752   2.938   3.690   2.737  0.0685 -0.3685 -0.2027
 1170SOL    HW1 3753   3.025   3.715   2.768  0.0017 -0.6360  0.2053
 1170SOL    HW2 3754   2.931   3.597   2.758  0.6153 -0.9690 -2.3567
 1171SOL     OW 3755   0.873   1.906   2.672 -0.0273 -0.0942 -0.0151
 1171SOL    HW1 3756   0.870   1.860   2.588 -1.3642  0.2377 -0.1759
 1171SOL    HW2 3757   0.940   1.972   2.661  0.0933 -0.3200 -0.6838
 1172SOL     OW 3758   3.450   0.684   2.097  0.6582  0.0578 -0.5656
 1172SOL    HW1 3759   3.504   0.713   2.170  0.7805 -1.1615 -0.1369
 1172SOL    HW2 3760   3.369   0.734   2.105 -1.0686 -2.7711  2.9156
 1173SOL     OW 3761   4.283   0.053   3.024 -0.6599 -0.3667  0.3684
 1173SOL    HW1 3762   4.288  -0.040   3.000 -0.2446 -0.1376 -0.4686
 1173SOL    HW2 3763   4.373   0.075   3.050 -0.4827  0.1076 -0.6264
 1174SOL     OW 3764   1.704   3.482   0.874 -0.2868 -0.2225 -0.4630
 1174SOL    HW1 3765   1.777   3.530   0.836 -2.0023  1.3722 -1.9418
 1174SOL    HW2 3766   1.738   3.448   0.957  1.6321  1.8570 -0.3091
 1175SOL     OW 3767   3.873   3.114   2.622 -0.5856  0.0115 -0.5473
 1175SOL    HW1 3768   3.940   3.050   2.649  0.4777  1.5378  0.6073
 1175SOL    HW2 3769   3.805   3.108   2.689  0.3188  1.2059  0.5491
 1176SOL     OW 3770   1.394   2.326   1.204 -0.0368  0.1945 -0.0207
 1176SOL    HW1 3771   1.464   2.373   1.158  0.8436 -1.2995 -0.2753
 1176SOL    HW2 3772   1.349   2.277   1.136 -0.9332  0.6333  0.2441
 1177SOL     OW 3773   1.775   1.700   2.019 -0.4997  0.4861  0.1322
 1177SOL    HW1 3774   1.806   1.627   2.073  1.8627  1.7787  0.6217
 1177SOL    HW2 3775   1.718   1.750   2.078 -0.6737  0.0466  0.3436
 1178SOL     OW 3776   0.150   0.654   2.817  0.7735  0.4172  0.7286
 1178SOL    HW1 3777   0.142   0.653   2.722  0.9584 -0.8171  0.7082
 1178SOL    HW2 3778   0.241   0.629   2.834  0.7303  0.5835  1.2218
 1179SOL     OW 3779  -0.001   0.448   1.201  0.2223  0.0010  0.4626
 1179SOL    HW1 3780   0.076   0.504   1.204 -1.3980  2.3554  0.6864
 1179SOL    HW2 3781   0.009   0.397   1.120  2.6244 -0.8281  1.1811
 1180SOL     OW 3782   3.938   3.487   0.160  0.3084 -0.3592 -0.1305
 1180SOL    HW1 3783   3.983   3.537   0.229 -0.4520 -1.7238  1.4129
 1180SOL    HW2 3784   3.904   3.554   0.101  1.8377  0.8205  0.2389
 1181SOL     OW 3785   0.951   2.879   0.518 -0.0466  0.5952 -0.1480
 1181SOL    HW1 3786   0.943   2.800   0.572  0.1487  0.7123  0.0498
 1181SOL    HW2 3787   0.981   2.846   0.433  0.3549  0.4919  0.0324
 1182SOL     OW 3788   0.808   2.505   0.041 -0.6466  0.1210  0.6059
 1182SOL    HW1 3789   0.811   2.420   0.083  0.3353 -0.5851 -0.7802
 1182SOL    HW2 3790   0.778   2.487  -0.048  0.3444  1.0761  0.0387
 1183SOL     OW 3791   3.846   2.406   0.068 -0.0176 -0.4371 -0.1946
 1183SOL    HW1 3792   3.915   2.340   0.077 -0.4815 -0.8219  0.6819
 1183SOL    HW2 3793   3.776   2.361   0.021  0.4605  0.0665 -1.4166
 1184SOL     OW 3794   4.075   3.657   0.336  0.4221 -0.3783 -0.1031
 1184SOL    HW1 3795   4.002   3.709   0.369  0.8489 -1.2811  2.5311
 1184SOL    HW2 3796   4.117   3.714   0.270 -2.7372  0.0110 -1.9600
 1185SOL     OW 3797   2.878   0.074   2.170 -1.3491  0.6061 -0.1965
 1185SOL    HW1 3798   2.897   0.054   2.078 -1.6731 -1.7616  0.1795
 1185SOL    HW2 3799   2.923   0.005   2.219 -0.7760  2.1196  1.4841
 1186SOL     OW 3800   2.431   0.549   2.875  0.3408  0.1338 -0.0434
 1186SOL    HW1 3801   2.413   0.458   2.851  0.7151 -0.0654  0.4308
 1186SOL    HW2 3802   2.435   0.548   2.970  0.7348  0.5783 -0.0559
 1187SOL     OW 3803   1.827   2.975   0.024 -0.1314 -0.5641 -0.3644
 1187SOL    HW1 3804   1.824   3.062  -0.016 -1.3323 -1.1578 -1.6775
 1187SOL    HW2 3805   1.914   2.970   0.064 -0.4939  1.6806  0.8680
 1188SOL     OW 3806   0.740   1.279   1.868 -0.0037 -0.2898  0.9336
 1188SOL    HW1 3807   0.763   1.364   1.830 -2.8159 -0.2114 -0.7910
 1188SOL    HW2 3808   0.781   1.215   1.810  0.6198 -0.1449  1.2052
 1189SOL     OW 3809   1.018   4.206   2.969 -0.5097 -0.0737 -0.4396
 1189SOL    HW1 3810   0.973   4.244   3.045 -0.4683 -1.0412  0.0782
 1189SOL    HW2 3811   1.012   4.112   2.982 -0.6015 -0.2629 -1.7019
 1190SOL     OW 3812   0.163   4.333   1.113 -0.3490  0.8558 -0.5592
 1190SOL    HW1 3813   0.083   4.309   1.161  0.7018  3.3322  2.7993
 1190SOL    HW2 3814   0.229   4.271   1.143 -0.4197  0.2251 -1.6243
 1191SOL     OW 3815   0.906   0.223   1.183 -0.0514  0.6532 -0.2844
 1191SOL    HW1 3816   0.967   0.210   1.111 -0.0977  0.0149 -0.2142
 1191SOL    HW2 3817   0.841   0.285   1.149  0.6166  1.3200 -0.3631
 1192SOL     OW 3818   3.212   3.717   2.460 -0.5511  0.5902 -0.2081
 1192SOL    HW1 3819   3.170   3.632   2.474 -0.0023  0.6755  2.3453
 1192SOL    HW2 3820   3.273   3.701   2.387 -0.6789 -1.1172  0.0120
 1193SOL     OW 3821   0.132   3.974   2.983  0.0921  0.5672  0.0090
 1193SOL    HW1 3822   0.106   4.002   3.071 -0.9483 -2.3830  0.7560
 1193SOL    HW2 3823   0.200   3.907   2.998 -0.6913 -0.5892 -1.3358
 1194SOL     OW 3824   2.832   0.786   2.715  0.4581  0.4028 -0.0669
 1194SOL    HW1 3825   2.904   0.841   2.747  0.7158 -0.4754  0.9597
 1194SOL    HW2 3826   2.831   0.712   2.775 -0.2308 -0.4422 -1.0862
 1195SOL     OW 3827   1.788   2.729   0.125 -0.1419  0.3962 -0.5407
 1195SOL    HW1 3828   1.780   2.819   0.095  2.3119  0.2517 -1.9314
 1195SOL    HW2 3829   1.744   2.728   0.210 -2.6644  2.1632 -1.6905
 1196SOL     OW 3830   2.922   3.262   0.245 -0.2981  0.4398  0.3406
 1196SOL    HW1 3831   2.948   3.353   0.260  0.4955  0.0006  1.8098
 1196SOL    HW2 3832   2.938   3.248   0.151 -0.7773  1.9093  0.0258
 1197SOL     OW 3833   2.065   1.021   2.984 -0.0895 -0.0727 -0.1816
 1197SOL    HW1 3834   1.991   0.964   2.961 -0.3706  0.5076 -0.7349
 1197SOL    HW2 3835   2.074   1.011   3.079 -1.8330  0.9725  0.1503
 1198SOL     OW 3836   2.115   1.816   1.932 -0.3374  0.1874  0.1238
 1198SOL    HW1 3837   2.093   1.725   1.911  0.0241 -0.1528  1.1478
 1198SOL    HW2 3838   2.076   1.867   1.862  0.4041 -0.8466 -1.0773
 1199SOL     OW 3839   0.326   0.914   0.085 -0.6190 -0.3119  0.3254
 1199SOL    HW1 3840   0.357   0.975   0.019 -0.9984  0.6098  0.9725
 1199SOL    HW2 3841   0.406   0.883   0.128 -0.3306 -1.3488 -0.8992
 1200SOL     OW 3842   2.881   1.852   2.165  0.2749  0.1280 -0.4307
 1200SOL    HW1 3843   2.813   1.787   2.181  0.8401 -1.1315 -2.7344
 1200SOL    HW2 3844   2.898   1.891   2.251 -0.1949 -2.6779  1.0334
 1201SOL     OW 3845   1.659   4.079   2.980 -0.3117  0.2563 -0.5832
 1201SOL    HW1 3846   1.744   4.050   2.947 -0.8345 -1.2329 -0.6715
 1201SOL    HW2 3847   1.623   4.004   3.026 -0.9263  1.3544  0.7988
 1202SOL     OW 3848   2.491   2.228   0.262  0.5768 -0.0531 -0.4573
 1202SOL    HW1 3849   2.440   2.304   0.290  2.1367  1.5063 -1.6400
 1202SOL    HW2 3850   2.477   2.163   0.331 -1.6103  0.9101  0.0768
 1203SOL     OW 3851   1.755   2.374   3.023 -0.1602  0.2102  0.1460
 1203SOL    HW1 3852   1.836   2.344   3.065 -0.0014 -1.2073 -1.0967
 1203SOL    HW2 3853   1.783   2.434   2.955 -0.2545  0.6289  0.4694
 1204SOL     OW 3854   2.545   2.562   2.840 -0.4316  0.1535 -0.0120
 1204SOL    HW1 3855   2.459   2.578   2.803 -0.7599 -1.0228  0.1963
 1204SOL    HW2 3856   2.565   2.640   2.892 -1.8699 -0.0356  0.8665
 1205SOL     OW 3857   3.271   0.758   2.860 -0.0899 -0.2161 -0.5619
 1205SOL    HW1 3858   3.323   0.728   2.934 -0.2208  0.7415 -0.0674
 1205SOL    HW2 3859   3.335   0.777   2.791  0.1489  0.1607 -0.2386
 1206SOL     OW 3860   4.090   1.139   1.496 -0.3338 -0.0129 -0.2520
 1206SOL    HW1 3861   4.169   1.186   1.469  0.0158 -1.2877 -1.5666
 1206SOL    HW2 3862   4.022   1.205   1.497  0.3302  0.7104 -1.1701
 1207SOL     OW 3863   2.869   3.323   0.544  0.0017 -0.1617 -0.2938
 1207SOL    HW1 3864   2.939   3.357   0.487  1.1205 -0.1682  1.0254
 1207SOL    HW2 3865   2.912   3.310   0.629 -1.1336 -2.0759  0.0264
 1208SOL     OW 3866   0.052   0.280   1.798  0.0833 -0.2479 -0.9475
 1208SOL    HW1 3867   0.118   0.240   1.741  0.2414 -0.7080 -0.4423
 1208SOL    HW2 3868  -0.010   0.210   1.816 -0.8677  0.3170 -1.8697
 1209SOL     OW 3869   1.473   3.594   1.072 -0.1025  0.3735  0.0965
 1209SOL    HW1 3870   1.401   3.608   1.010 -0.1661 -0.7730 -0.1209
 1209SOL    HW2 3871   1.552   3.593   1.018 -0.3276 -2.6950 -0.3510
 1210SOL     OW 3872   1.877   0.850   1.816 -0.0399  0.2354  0.6226
 1210SOL    HW1 3873   1.937   0.776   1.807  0.6919  0.6660  1.6883
 1210SOL    HW2 3874   1.808   0.818   1.874  0.4036  0.4338  1.2809
 1211SOL     OW 3875   3.237   0.857   2.086 -0.0059 -0.0337  0.4976
 1211SOL    HW1 3876   3.183   0.926   2.126  0.0964  0.5033 -0.2533
 1211SOL    HW2 3877   3.233   0.876   1.992  2.5475  0.8230  0.5008
 1212SOL     OW 3878   4.151   1.597   1.549  0.0961 -0.1590 -0.1592
 1212SOL    HW1 3879   4.130   1.690   1.553 -0.8680 -0.3123 -1.0241
 1212SOL    HW2 3880   4.233   1.593   1.500 -0.2861  0.2013 -0.8462
 1213SOL     OW 3881   0.470   1.362   1.081  0.4054 -0.0766  0.2883
 1213SOL    HW1 3882   0.436   1.285   1.126  0.6288 -0.4319 -0.1387
 1213SOL    HW2 3883   0.494   1.422   1.151  0.7845 -0.6370  0.6501
 1214SOL     OW 3884   1.627   1.149   2.037  0.3357 -0.3584  0.1944
 1214SOL    HW1 3885   1.685   1.159   2.113  0.3030 -1.0320  0.3097
 1214SOL    HW2 3886   1.685   1.117   1.968  0.1846 -0.6289  0.1935
 1215SOL     OW 3887   3.755   3.307   2.487 -0.8431 -0.1482 -0.8019
 1215SOL    HW1 3888   3.769   3.231   2.544 -0.6504  0.5215  0.0688
 1215SOL    HW2 3889   3.833   3.361   2.499 -1.7027  1.0157 -0.0549
 1216SOL     OW 3890   3.098   2.210   2.105 -0.1401  0.1473 -0.5075
 1216SOL    HW1 3891   3.183   2.216   2.150 -1.1015  1.5801  1.2028
 1216SOL    HW2 3892   3.047   2.283   2.139 -2.5176 -1.3873 -0.5929
 1217SOL     OW 3893   0.933   2.063   0.008 -0.0354 -0.4956 -0.7095
 1217SOL    HW1 3894   0.944   1.980  -0.038  0.2335 -0.4738 -0.6876
 1217SOL    HW2 3895   1.022   2.088   0.034 -0.1961 -0.5577 -0.0869
 1218SOL     OW 3896   2.300   1.611   0.921 -0.1275  0.4728  0.3021
 1218SOL    HW1 3897   2.245   1.636   0.847 -0.3043  2.7316  1.1228
 1218SOL    HW2 3898   2.364   1.682   0.928  0.8769 -0.5032  1.3419
 1219SOL     OW 3899   3.777   3.915   1.219 -0.3929  0.5986  0.1410
 1219SOL    HW1 3900   3.777   3.961   1.303  0.5206  1.5799 -0.3631
 1219SOL    HW2 3901   3.869   3.895   1.202 -0.7996 -1.6986  0.4584
 1220SOL     OW 3902   1.749   1.265   2.315  0.1475 -0.9164 -0.1942
 1220SOL    HW1 3903   1.807   1.211   2.263  0.0281 -0.6565 -0.6030
 1220SOL    HW2 3904   1.698   1.203   2.367  0.6503 -1.1534  0.0272
 1221SOL     OW 3905   2.927   4.360   2.433  0.4238  0.2148 -0.0357
 1221SOL    HW1 3906   2.897   4.271   2.454  1.1092 -1.0398 -3.7355
 1221SOL    HW2 3907   3.020   4.350   2.414  0.5444  1.7903 -0.3924
 1222SOL     OW 3908   1.758   2.385   2.419  0.2828 -0.4261 -0.2431
 1222SOL    HW1 3909   1.801   2.471   2.409  1.3802 -1.0415 -1.0560
 1222SOL    HW2 3910   1.673   2.396   2.377  0.7404  0.0455 -1.0813
 1223SOL     OW 3911   0.345   3.068   1.140  0.2537  0.0823  0.0364
 1223SOL    HW1 3912   0.275   3.004   1.155  0.1111  0.5963  1.6957
 1223SOL    HW2 3913   0.423   3.015   1.127 -0.0400 -0.4592  0.4157
 1224SOL     OW 3914   2.233   3.822   2.119  0.0383  0.3923  0.4959
 1224SOL    HW1 3915   2.271   3.744   2.158  1.0589  1.3045  1.3887
 1224SOL    HW2 3916   2.139   3.814   2.137 -0.0790 -1.2132 -0.5447
 1225SOL     OW 3917   0.028   0.127   1.524  0.3672 -0.0892  0.2519
 1225SOL    HW1 3918   0.123   0.112   1.527  0.8269  2.4512  2.0922
 1225SOL    HW2 3919   0.019   0.219   1.500 -1.6488 -0.1881  0.4428
 1226SOL     OW 3920   2.112   3.115   0.795 -0.4552 -0.0093 -0.2942
 1226SOL    HW1 3921   2.047   3.185   0.801 -1.2915 -0.4739 -2.7975
 1226SOL    HW2 3922   2.061   3.034   0.801  0.5184 -0.5385  2.7566
 1227SOL     OW 3923   2.052   3.987   0.593  0.5356 -0.2602 -0.2102
 1227SOL    HW1 3924   2.019   4.070   0.558 -0.6024 -0.2586  0.7880
 1227SOL    HW2 3925   2.082   3.939   0.516 -1.3113 -0.0079 -1.1571
 1228SOL     OW 3926   2.051   1.598   2.390 -0.0435  0.0096  0.2176
 1228SOL    HW1 3927   2.028   1.608   2.298  0.4323 -0.8451 -0.0082
 1228SOL    HW2 3928   2.026   1.509   2.412  0.3549  0.0231  0.7616
 1229SOL     OW 3929   1.496   2.712   0.110 -0.1412  0.1691  0.1635
 1229SOL    HW1 3930   1.494   2.801   0.075 -4.5342  0.3610  0.3597
 1229SOL    HW2 3931   1.468   2.657   0.037  0.9847 -0.8811  0.4897
 1230SOL     OW 3932   3.475   0.319   1.779  0.1833 -0.4179 -0.5737
 1230SOL    HW1 3933   3.487   0.244   1.837  0.2771  0.3104  0.3507
 1230SOL    HW2 3934   3.563   0.346   1.755  0.1698 -0.1787 -0.3570
 1231SOL     OW 3935   2.578   2.225   2.138 -0.0877 -0.5741  0.1733
 1231SOL    HW1 3936   2.533   2.181   2.066 -0.8476  1.9466 -1.0241
 1231SOL    HW2 3937   2.513   2.231   2.207 -0.3999 -0.2563 -0.1407
 1232SOL     OW 3938   4.311   1.296   1.377 -0.1588 -0.4795 -0.3098
 1232SOL    HW1 3939   4.398   1.258   1.364  0.7953  1.3179  0.4966
 1232SOL    HW2 3940   4.310   1.374   1.322 -0.3110  0.8627  1.4962
 1233SOL     OW 3941   1.803   1.731   2.482 -0.0612  0.5439 -0.0126
 1233SOL    HW1 3942   1.730   1.713   2.423 -0.0702 -1.9694  0.6673
 1233SOL    HW2 3943   1.868   1.664   2.461  1.0066  1.1805  1.1135
 1234SOL     OW 3944   0.217   1.092   1.016  0.9678 -0.0275 -0.1178
 1234SOL    HW1 3945   0.209   1.184   0.993 -0.2957 -0.1090 -0.0499
 1234SOL    HW2 3946   0.250   1.050   0.936 -1.1705  0.0586 -1.1057
 1235SOL     OW 3947   1.985   1.957   2.125 -0.0117  0.2168 -0.2406
 1235SOL    HW1 3948   1.994   1.884   2.064 -1.2565 -0.4506  0.3448
 1235SOL    HW2 3949   2.053   2.019   2.098  0.6595 -0.8728 -1.1380
 1236SOL     OW 3950   1.527   1.820   1.880  0.5962 -0.0801 -0.3868
 1236SOL    HW1 3951   1.568   1.747   1.832  0.9944 -0.6840  0.8368
 1236SOL    HW2 3952   1.510   1.785   1.967  2.0422  1.6841  0.6756
 1237SOL     OW 3953   2.495   0.469   1.002 -0.1095  0.1681 -1.0007
 1237SOL    HW1 3954   2.589   0.474   1.019 -0.0623 -1.4048 -0.6697
 1237SOL    HW2 3955   2.472   0.556   0.969  0.9563  1.4409  1.3549
 1238SOL     OW 3956   4.217   2.340   0.686 -0.1576  0.3194  0.1897
 1238SOL    HW1 3957   4.127   2.339   0.718  0.1120 -1.6284  1.0554
 1238SOL    HW2 3958   4.228   2.255   0.644  0.9583  0.9626 -0.8697
 1239SOL     OW 3959   2.163   2.199   0.500 -0.2829 -0.1265  0.5435
 1239SOL    HW1 3960   2.193   2.279   0.543  1.7081 -0.2500 -0.4643
 1239SOL    HW2 3961   2.133   2.228   0.414  0.0939 -0.4129  0.3129
 1240SOL     OW 3962   4.199   0.664   2.800  0.8830 -0.2973 -0.1271
 1240SOL    HW1 3963   4.185   0.570   2.789 -0.6889 -0.1385  0.3492
 1240SOL    HW2 3964   4.270   0.685   2.740  0.3153 -1.5440 -1.2696
 1241SOL     OW 3965   3.217   1.631   0.191  0.0046  0.2132 -0.1381
 1241SOL    HW1 3966   3.265   1.674   0.262 -1.7949 -1.3807  2.1922
 1241SOL    HW2 3967   3.229   1.537   0.208 -0.7028 -0.2127 -1.8046
 1242SOL     OW 3968   3.802   0.129   0.314  0.1787 -0.4178 -0.0406
 1242SOL    HW1 3969   3.736   0.185   0.353  0.6169 -1.4941  2.4246
 1242SOL    HW2 3970   3.874   0.188   0.292 -0.5615  0.3851 -0.3783
 1243SOL     OW 3971   4.104   1.897   0.253 -0.4930  0.1572 -0.3960
 1243SOL    HW1 3972   4.086   1.803   0.255  0.5147 -0.0575  1.7344
 1243SOL    HW2 3973   4.192   1.905   0.290 -1.0435  2.0154  0.6226
 1244SOL     OW 3974   3.550   0.821   1.725  0.3928 -0.1354  0.0010
 1244SOL    HW1 3975   3.530   0.786   1.638 -3.1454  2.8481 -0.6556
 1244SOL    HW2 3976   3.565   0.915   1.710 -2.0639  0.8515  2.6340
 1245SOL     OW 3977   4.363   3.688   0.497  0.0352 -0.2429 -0.7589
 1245SOL    HW1 3978   4.283   3.673   0.446 -1.4427 -1.9922  1.8333
 1245SOL    HW2 3979   4.331   3.716   0.582  2.2947  0.3541 -0.0624
 1246SOL     OW 3980   3.315   0.911   1.815 -0.0299  0.0485  0.1160
 1246SOL    HW1 3981   3.396   0.862   1.808 -0.2021 -0.0413 -1.8417
 1246SOL    HW2 3982   3.264   0.886   1.737 -0.0663  3.3332 -1.1086
 1247SOL     OW 3983   4.345   1.340   1.693  0.5341  0.0980 -0.2894
 1247SOL    HW1 3984   4.312   1.313   1.607  0.7971  1.0843 -0.7068
 1247SOL    HW2 3985   4.437   1.311   1.693  0.2025 -1.0206  0.1656
 1248SOL     OW 3986   1.841   3.021   1.786  0.3236  0.8459  0.1037
 1248SOL    HW1 3987   1.763   2.965   1.790  0.2186  0.8895 -0.9031
 1248SOL    HW2 3988   1.806   3.110   1.789  0.6348  1.0400  4.7405
 1249SOL     OW 3989   0.629   2.991   1.191 -0.6589 -0.4650  0.1140
 1249SOL    HW1 3990   0.675   2.919   1.235  0.4058  0.8617  1.2914
 1249SOL    HW2 3991   0.658   3.069   1.238 -3.3488  0.5613  0.2162
 1250SOL     OW 3992   4.195   0.732   1.724  0.1111  0.1722 -0.4870
 1250SOL    HW1 3993   4.206   0.803   1.787  1.1521 -0.4954  0.1215
 1250SOL    HW2 3994   4.102   0.708   1.731  0.1709  0.2409  0.6570
 1251SOL     OW 3995   0.250   2.680   0.027  0.0568  0.4756 -0.1436
 1251SOL    HW1 3996   0.338   2.650   0.052  1.1208  2.5080 -1.1726
 1251SOL    HW2 3997   0.228   2.745   0.094 -0.7086 -0.0783  0.1475
 1252SOL     OW 3998   3.593   1.236   1.928 -0.0599  0.1923  0.0934
 1252SOL    HW1 3999   3.641   1.153   1.931 -2.2737 -1.1567  0.8923
 1252SOL    HW2 4000   3.517   1.218   1.873 -1.0294  1.4194  0.9540
 1253SOL     OW 4001   0.889   4.324   1.337  0.3483 -0.4000 -0.0317
 1253SOL    HW1 4002   0.870   4.245   1.387  0.3568 -1.1548 -1.1881
 1253SOL    HW2 4003   0.925   4.292   1.254  0.1368  0.8039 -0.6097
 1254SOL     OW 4004   2.670   1.916   2.585 -0.2469 -0.0766 -0.6754
 1254SOL    HW1 4005   2.724   1.908   2.664  0.6080 -0.1144 -1.2480
 1254SOL    HW2 4006   2.604   1.980   2.608 -0.5601 -0.7520  0.3687
 1255SOL     OW 4007   4.333   0.935   2.654  0.1831 -0.1000 -0.1837
 1255SOL    HW1 4008   4.283   0.941   2.572  0.2750  2.7916 -0.1163
 1255SOL    HW2 4009   4.423   0.919   2.626  0.1975  0.7651 -0.6768
 1256SOL     OW 4010   3.747   0.417   1.754  0.1534 -0.0432 -0.0456
 1256SOL    HW1 4011   3.732   0.479   1.825  0.1305  2.0406 -1.7608
 1256SOL    HW2 4012   3.821   0.454   1.705  0.5101 -1.6867 -0.8092
 1257SOL     OW 4013   2.448   1.975   1.589  0.4011  0.6365 -0.6380
 1257SOL    HW1 4014   2.371   2.002   1.639 -0.8486  1.0407 -2.6457
 1257SOL    HW2 4015   2.514   2.040   1.609 -0.6450  1.8014 -0.8388
 1258SOL     OW 4016   1.858   4.002   2.830  0.3963  0.2070  0.4198
 1258SOL    HW1 4017   1.867   3.913   2.795  1.0171  0.8521 -1.2015
 1258SOL    HW2 4018   1.849   4.057   2.751 -0.4297  1.5329  1.4000
 1259SOL     OW 4019   2.595   2.338   0.533  0.0762  0.1138  0.2988
 1259SOL    HW1 4020   2.560   2.256   0.500  1.1968 -0.6303  0.8904
 1259SOL    HW2 4021   2.561   2.344   0.622  0.0110  0.2776  0.2623
 1260SOL     OW 4022   0.562   3.519   2.436 -0.3388 -0.2207  0.1297
 1260SOL    HW1 4023   0.545   3.430   2.404 -0.1244 -0.3881  0.4696
 1260SOL    HW2 4024   0.524   3.576   2.370  2.0673 -0.4985 -1.6530
 1261SOL     OW 4025   3.628   2.490   2.294 -0.4575  0.3091  0.2249
 1261SOL    HW1 4026   3.591   2.422   2.238  1.0416 -0.4870  0.1560
 1261SOL    HW2 4027   3.625   2.452   2.382 -1.4669  0.9741  0.4869
 1262SOL     OW 4028   1.834   3.212   1.470  1.0137  0.2605 -0.4865
 1262SOL    HW1 4029   1.797   3.291   1.509 -1.7169 -0.7003 -0.9212
 1262SOL    HW2 4030   1.928   3.224   1.477  0.7883  1.1579  4.2972
 1263SOL     OW 4031   2.163   2.184   2.068  0.3026 -0.1876  0.0025
 1263SOL    HW1 4032   2.224   2.154   2.001  0.8417 -2.0735  1.2719
 1263SOL    HW2 4033   2.097   2.235   2.019  1.5620 -0.1072 -1.6993
 1264SOL     OW 4034   0.217   0.890   1.196 -0.5882 -0.3651  0.1455
 1264SOL    HW1 4035   0.133   0.902   1.239 -1.1671 -1.5665 -0.6065
 1264SOL    HW2 4036   0.215   0.952   1.123 -1.5227 -1.4928 -0.8283
 1265SOL     OW 4037   0.148   1.380   1.891 -0.5131  0.0070  0.1368
 1265SOL    HW1 4038   0.162   1.321   1.817 -0.0427  1.5351 -1.0387
 1265SOL    HW2 4039   0.209   1.348   1.958 -0.4088 -0.9411 -0.3825
 1266SOL     OW 4040   1.859   1.847   0.209 -0.2033 -0.1382 -0.0632
 1266SOL    HW1 4041   1.922   1.814   0.274 -0.1842 -1.9862 -0.9468
 1266SOL    HW2 4042   1.914   1.888   0.142 -0.0926  0.1931  0.2306
 1267SOL     OW 4043   2.471   2.907   1.143 -0.1020  0.4079 -0.5116
 1267SOL    HW1 4044   2.484   2.827   1.193  1.2800  1.9527  1.7589
 1267SOL    HW2 4045   2.558   2.928   1.109  0.3199  2.6754  1.7659
 1268SOL     OW 4046   2.485   4.223   2.802 -0.2695  0.2825  0.2630
 1268SOL    HW1 4047   2.502   4.174   2.883 -1.6344 -0.6827  0.0031
 1268SOL    HW2 4048   2.415   4.284   2.826  1.2555  2.0146  0.5204
 1269SOL     OW 4049   0.069   1.596   1.706  0.1099  0.2325  0.0769
 1269SOL    HW1 4050   0.127   1.624   1.777 -0.8084 -0.1157  0.9876
 1269SOL    HW2 4051   0.036   1.511   1.734 -0.5053  0.2310 -0.6267
 1270SOL     OW 4052   2.489   1.697   1.472  0.1319  0.1378  0.4674
 1270SOL    HW1 4053   2.539   1.632   1.521  1.3167  1.0890  0.5705
 1270SOL    HW2 4054   2.514   1.781   1.511  3.6759  1.3603 -3.6615
 1271SOL     OW 4055   0.753   1.970   1.380 -0.3313  0.3676 -0.2837
 1271SOL    HW1 4056   0.768   1.876   1.370  0.0331  0.4602 -0.6499
 1271SOL    HW2 4057   0.659   1.981   1.366 -0.4820 -0.0187  0.3737
 1272SOL     OW 4058   1.115   2.261   1.253 -0.4503  0.0600  0.3516
 1272SOL    HW1 4059   1.206   2.249   1.281 -0.1406 -0.2778 -0.7266
 1272SOL    HW2 4060   1.109   2.353   1.228  0.1526 -0.3305 -1.3713
 1273SOL     OW 4061   0.299   1.891   2.868  0.1820 -0.1271 -0.3039
 1273SOL    HW1 4062   0.220   1.938   2.895  0.4025  0.8637 -1.3306
 1273SOL    HW2 4063   0.363   1.909   2.938 -0.0323  0.3221 -0.2232
 1274SOL     OW 4064   3.891   1.254   2.910  0.9235 -0.2607 -0.4241
 1274SOL    HW1 4065   3.802   1.224   2.891  1.2611 -1.4069 -0.2689
 1274SOL    HW2 4066   3.882   1.349   2.923 -0.3418 -0.4291  0.0528
 1275SOL     OW 4067   2.743   0.678   0.842 -0.5599 -0.1806  0.8159
 1275SOL    HW1 4068   2.806   0.606   0.837  1.2857  1.3113  1.3227
 1275SOL    HW2 4069   2.770   0.728   0.919 -1.6514  1.1696  0.3666
 1276SOL     OW 4070   3.643   1.720   0.748  0.3490  0.4628  0.4248
 1276SOL    HW1 4071   3.702   1.715   0.824  2.0218  0.3416 -0.8281
 1276SOL    HW2 4072   3.560   1.688   0.781  1.3338 -0.6959  1.9416
 1277SOL     OW 4073   1.998   2.822   1.422 -0.0781 -0.7148 -0.1509
 1277SOL    HW1 4074   2.005   2.895   1.484 -0.2428 -0.8883  0.0742
 1277SOL    HW2 4075   1.905   2.816   1.402 -0.0159 -0.6101 -0.4765
 1278SOL     OW 4076   1.092   4.170   0.371 -0.1516  0.0555  0.3373
 1278SOL    HW1 4077   1.159   4.115   0.412 -1.0429 -0.7655  0.7270
 1278SOL    HW2 4078   1.062   4.228   0.441  0.1786  0.4589  0.1495
 1279SOL     OW 4079   4.188   4.034   2.541 -0.1197  0.2074 -0.2597
 1279SOL    HW1 4080   4.097   4.021   2.568  0.1335 -0.5003  0.2965
 1279SOL    HW2 4081   4.183   4.048   2.447 -0.6922 -1.4188 -0.5157
 1280SOL     OW 4082   0.018   3.987   2.085  0.2553  0.1042 -0.6142
 1280SOL    HW1 4083   0.068   4.049   2.031  2.0311 -1.4715 -0.8692
 1280SOL    HW2 4084  -0.030   3.934   2.021 -0.5291  0.5766 -0.4341
 1281SOL     OW 4085   3.817   1.712   0.975  0.2919  0.0161 -0.6809
 1281SOL    HW1 4086   3.854   1.795   0.945 -0.7050  1.4358  1.7639
 1281SOL    HW2 4087   3.892   1.653   0.981  1.2440  1.1398 -1.1469
 1282SOL     OW 4088   1.973   1.844   1.246 -0.2074  0.2660  0.2564
 1282SOL    HW1 4089   2.003   1.808   1.163 -0.4555 -0.8502  0.6314
 1282SOL    HW2 4090   2.048   1.834   1.305 -0.0659  0.9620  0.2054
 1283SOL     OW 4091   2.454   1.825   0.962 -0.3715 -0.4094  0.0721
 1283SOL    HW1 4092   2.520   1.848   0.897 -1.5204 -0.9541 -1.3550
 1283SOL    HW2 4093   2.437   1.906   1.010  0.6872 -0.0629 -0.1231
 1284SOL     OW 4094   2.258   0.519   1.145  0.1335  0.7743 -0.1613
 1284SOL    HW1 4095   2.239   0.505   1.238 -1.6727 -1.0688 -0.7257
 1284SOL    HW2 4096   2.341   0.475   1.130  0.6902  1.5218  0.6729
 1285SOL     OW 4097   3.258   2.616   2.115  0.0063  0.5941  0.9086
 1285SOL    HW1 4098   3.266   2.565   2.195 -0.6741 -0.6226  0.2279
 1285SOL    HW2 4099   3.306   2.566   2.049  1.6303  2.2031  0.7951
 1286SOL     OW 4100   1.544   3.354   1.618 -0.0949  0.4532 -0.0424
 1286SOL    HW1 4101   1.578   3.443   1.615 -0.1322  0.4506 -1.1435
 1286SOL    HW2 4102   1.454   3.362   1.585 -0.8588  0.3074  1.8551
 1287SOL     OW 4103   0.903   4.189   1.074 -0.0961 -0.6645  0.5120
 1287SOL    HW1 4104   0.964   4.118   1.052  0.4278  0.5333 -2.3286
 1287SOL    HW2 4105   0.883   4.230   0.990 -1.9761  1.2960  1.8276
 1288SOL     OW 4106   1.907   0.132   1.358 -0.5121 -0.1997 -1.0419
 1288SOL    HW1 4107   1.913   0.218   1.316 -0.0262 -0.8868 -2.4660
 1288SOL    HW2 4108   1.987   0.125   1.410 -0.3214  0.0197 -1.3024
 1289SOL     OW 4109   1.312   0.998   0.305 -0.5881  0.4162  0.0162
 1289SOL    HW1 4110   1.392   1.033   0.265 -2.3627  3.0926 -1.5635
 1289SOL    HW2 4111   1.319   0.903   0.295  2.2853  0.5758 -0.1904
 1290SOL     OW 4112   0.609   3.746   1.350  0.2937 -0.1378  0.0273
 1290SOL    HW1 4113   0.621   3.762   1.443  0.9977  0.2543 -0.1206
 1290SOL    HW2 4114   0.549   3.814   1.321  1.0670  0.5354 -0.0418
 1291SOL     OW 4115   1.119   2.309   1.831  1.0128  0.0452 -0.5230
 1291SOL    HW1 4116   1.181   2.376   1.858  3.2039 -2.2560  0.4683
 1291SOL    HW2 4117   1.154   2.277   1.748  0.5443 -0.5632 -0.4875
 1292SOL     OW 4118   4.240   3.830   1.943  0.0116 -0.4978  0.1283
 1292SOL    HW1 4119   4.167   3.832   2.005 -1.7945 -0.4799 -1.8890
 1292SOL    HW2 4120   4.255   3.737   1.927 -0.1102 -0.4878 -0.0495
 1293SOL     OW 4121   3.605   2.456   0.587 -0.0156 -0.8466  0.0062
 1293SOL    HW1 4122   3.622   2.465   0.493 -1.3320 -0.6667 -0.2384
 1293SOL    HW2 4123   3.616   2.362   0.604  1.5371 -0.6944 -0.0268
 1294SOL     OW 4124   1.842   1.980   0.512 -0.1272  0.0227  0.2331
 1294SOL    HW1 4125   1.775   1.926   0.470 -1.1480  0.9998  0.5534
 1294SOL    HW2 4126   1.901   1.918   0.554 -0.5772 -0.8672 -0.4308
 1295SOL     OW 4127   0.473   0.927   0.361 -0.5795 -0.0667 -0.3079
 1295SOL    HW1 4128   0.520   0.851   0.327  0.0458  0.3325 -0.3461
 1295SOL    HW2 4129   0.538   0.997   0.363 -0.4990 -0.1485  2.0232
 1296SOL     OW 4130   1.995   1.343   2.466 -0.1705  0.2204 -0.5737
 1296SOL    HW1 4131   1.931   1.273   2.464 -0.9896  0.9632 -1.9581
 1296SOL    HW2 4132   2.080   1.299   2.462 -0.6331 -0.7110 -0.2853
 1297SOL     OW 4133   1.026   2.651   0.683  0.3893  0.1861 -0.2555
 1297SOL    HW1 4134   1.028   2.558   0.661 -1.6042  0.5088 -2.1587
 1297SOL    HW2 4135   1.031   2.653   0.778 -1.6393 -2.0457  0.0054
 1298SOL     OW 4136   2.593   3.315   2.988 -0.2422  0.2467  0.1084
 1298SOL    HW1 4137   2.581   3.372   3.063 -0.4488  1.9896 -1.1792
 1298SOL    HW2 4138   2.688   3.300   2.984 -0.3311 -0.7725  1.3165
 1299SOL     OW 4139   2.255   2.110   1.731 -0.0569 -0.2509  0.4162
 1299SOL    HW1 4140   2.162   2.090   1.717  0.0218  0.4493 -1.3758
 1299SOL    HW2 4141   2.266   2.198   1.695  1.1432 -0.0088  1.3270
 1300SOL     OW 4142   1.219   1.801   2.335 -0.4789  0.6580 -0.3048
 1300SOL    HW1 4143   1.253   1.833   2.419  0.7126  2.6767 -1.4702
 1300SOL    HW2 4144   1.127   1.782   2.353  0.0451 -0.1973  1.7489
 1301SOL     OW 4145   0.410   4.067   0.636 -0.0351 -0.2204 -0.1109
 1301SOL    HW1 4146   0.369   4.101   0.716  1.5795  1.0111  0.2525
 1301SOL    HW2 4147   0.337   4.040   0.581 -1.2270 -0.0233  1.3200
 1302SOL     OW 4148   2.489   2.086   0.501 -0.5017  0.4796  1.1242
 1302SOL    HW1 4149   2.396   2.082   0.522 -0.1895  0.3996  2.5798
 1302SOL    HW2 4150   2.523   1.999   0.523 -0.1619  0.3522  0.1499
 1303SOL     OW 4151   1.216   1.425   2.242  0.3214  0.5231 -0.0485
 1303SOL    HW1 4152   1.307   1.396   2.241  0.5274  1.1659 -0.4107
 1303SOL    HW2 4153   1.174   1.370   2.308  0.8125 -0.2542 -0.3679
 1304SOL     OW 4154   0.573   1.339   2.584 -0.0103 -0.0528  0.4241
 1304SOL    HW1 4155   0.595   1.410   2.523 -1.1867  1.7957  2.0395
 1304SOL    HW2 4156   0.655   1.322   2.631 -0.0142  1.2396  0.9558
 1305SOL     OW 4157   3.144   2.481   1.089 -0.6260 -0.2735  0.3427
 1305SOL    HW1 4158   3.186   2.567   1.078 -2.5199  0.6846  0.1956
 1305SOL    HW2 4159   3.147   2.465   1.183  1.4652 -1.0155  0.2099
 1306SOL     OW 4160   0.616   0.559   0.822  0.3543 -0.2996 -0.5384
 1306SOL    HW1 4161   0.666   0.518   0.891 -2.1854 -2.0098  0.4359
 1306SOL    HW2 4162   0.557   0.620   0.867  0.9814  1.1562 -1.5747
 1307SOL     OW 4163   4.256   1.261   2.006 -0.8984 -0.0589 -0.0759
 1307SOL    HW1 4164   4.268   1.353   1.982 -0.3615  0.8474  3.2404
 1307SOL    HW2 4165   4.164   1.254   2.032 -0.2868  0.3951  2.5004
 1308SOL     OW 4166   1.244   1.257   2.974 -0.3713  0.1987 -0.4384
 1308SOL    HW1 4167   1.305   1.231   3.044 -0.7117 -0.1687 -0.2694
 1308SOL    HW2 4168   1.224   1.349   2.992 -1.2450 -0.1651  0.5615
 1309SOL     OW 4169   1.375   0.950   2.457 -0.4099  0.3154  0.0892
 1309SOL    HW1 4170   1.387   0.872   2.510  0.2591 -1.0178 -1.8946
 1309SOL    HW2 4171   1.294   0.989   2.490 -0.0974 -0.5035  1.9454
 1310SOL     OW 4172   0.791   3.776   2.966 -0.1848 -0.2364 -0.0035
 1310SOL    HW1 4173   0.737   3.762   3.044 -0.3439 -0.8854 -0.2280
 1310SOL    HW2 4174   0.729   3.801   2.898 -0.2385 -1.1476 -0.3058
 1311SOL     OW 4175   1.959   2.532   1.150  0.1836 -0.0957  1.3272
 1311SOL    HW1 4176   2.000   2.469   1.090  0.7155  1.3395  0.1237
 1311SOL    HW2 4177   1.938   2.481   1.228  1.3542 -1.5759  0.7159
 1312SOL     OW 4178   2.879   2.449   1.915  0.0345 -0.1866  0.0145
 1312SOL    HW1 4179   2.919   2.363   1.900 -0.9209 -0.7202  0.4971
 1312SOL    HW2 4180   2.952   2.510   1.907  1.0920 -1.1916  1.4491
 1313SOL     OW 4181   1.943   3.536   2.095  0.2600 -0.2557  0.1552
 1313SOL    HW1 4182   2.016   3.476   2.082  0.3869 -0.3236  1.0849
 1313SOL    HW2 4183   1.866   3.479   2.103  0.4809 -0.3775  1.7806
 1314SOL     OW 4184   2.901   2.135   0.725  0.1665 -0.6383 -0.0178
 1314SOL    HW1 4185   2.896   2.192   0.801  0.7923  2.5350 -2.1474
 1314SOL    HW2 4186   2.982   2.085   0.738  1.5544  1.5888  0.3478
 1315SOL     OW 4187   3.387   2.236   0.944 -0.6296 -0.1124 -0.1390
 1315SOL    HW1 4188   3.329   2.193   1.007 -1.0704  0.4341 -0.1664
 1315SOL    HW2 4189   3.370   2.329   0.954  1.3499  0.1934  0.9369
 1316SOL     OW 4190   1.905   0.439   2.335 -0.5013 -0.2650  0.0683
 1316SOL    HW1 4191   1.912   0.495   2.258 -0.2680 -0.4515 -0.0476
 1316SOL    HW2 4192   1.969   0.369   2.320  0.0838  0.1031  0.7676
 1317SOL     OW 4193   2.069   4.351   2.854  0.5642  0.3256 -0.1845
 1317SOL    HW1 4194   2.081   4.415   2.925 -2.9747  2.3592 -1.1560
 1317SOL    HW2 4195   2.025   4.277   2.896  2.4124 -0.4555  0.4708
 1318SOL     OW 4196   2.679   2.800   0.822 -0.4722 -0.1767  0.0722
 1318SOL    HW1 4197   2.720   2.886   0.813  0.9718 -0.7911  0.4592
 1318SOL    HW2 4198   2.659   2.773   0.732  0.9086 -0.2822 -0.2174
 1319SOL     OW 4199   3.691   0.972   0.127 -0.3951  0.6413  0.2699
 1319SOL    HW1 4200   3.621   0.997   0.067 -0.1319 -0.9857 -0.7838
 1319SOL    HW2 4201   3.667   0.884   0.156  0.3190  0.7642  1.2989
 1320SOL     OW 4202   0.595   1.997   1.745 -0.0289 -0.0217 -0.4052
 1320SOL    HW1 4203   0.523   1.953   1.701  0.6012 -0.4855 -0.9859
 1320SOL    HW2 4204   0.654   2.023   1.675  1.0194 -0.8335  0.1541
 1321SOL     OW 4205   2.159   2.820   0.998  0.0833 -0.6342  0.8115
 1321SOL    HW1 4206   2.229   2.782   1.051  2.3408  1.9567 -0.0622
 1321SOL    HW2 4207   2.118   2.884   1.055  1.4000  0.9544  0.0463
 1322SOL     OW 4208   2.289   0.015   0.953  0.2830  0.1576  0.1353
 1322SOL    HW1 4209   2.323   0.097   0.914  1.5716  0.4449  1.7436
 1322SOL    HW2 4210   2.208   0.041   0.996 -0.9635 -0.0886 -1.9549
 1323SOL     OW 4211   2.435   4.363   0.457 -0.2505  0.1649 -0.0225
 1323SOL    HW1 4212   2.421   4.323   0.370 -1.7350 -0.9816  0.6953
 1323SOL    HW2 4213   2.366   4.326   0.511 -0.9812  2.8694  1.0385
 1324SOL     OW 4214   2.559   2.655   0.175  0.0165 -0.6243 -0.4628
 1324SOL    HW1 4215   2.605   2.610   0.246  0.3740 -0.7568 -0.7790
 1324SOL    HW2 4216   2.628   2.703   0.129 -0.4805  1.0920  0.4838
 1325SOL     OW 4217   1.198   1.613   2.684 -0.8221  0.5485  0.0965
 1325SOL    HW1 4218   1.276   1.585   2.635 -1.2557 -2.8610  1.0888
 1325SOL    HW2 4219   1.220   1.596   2.775 -2.1607  1.1155  0.5494
 1326SOL     OW 4220   2.341   1.991   1.312  0.3985 -0.1771 -0.3596
 1326SOL    HW1 4221   2.279   1.919   1.324 -1.8671  1.7402  0.1805
 1326SOL    HW2 4222   2.390   1.995   1.394  1.4425 -1.8486 -0.8681
 1327SOL     OW 4223   2.885   2.448   0.323 -0.8429  0.3711 -0.2718
 1327SOL    HW1 4224   2.970   2.405   0.336  0.1398  2.0347 -0.7756
 1327SOL    HW2 4225   2.846   2.403   0.248  1.2793  1.8064 -2.4198
 1328SOL     OW 4226   0.678   4.376   3.065  0.9010 -0.5014  0.2125
 1328SOL    HW1 4227   0.631   4.295   3.046  0.8277 -1.0597  2.4733
 1328SOL    HW2 4228   0.622   4.422   3.127  1.1251  1.1364 -0.7527
 1329SOL     OW 4229   1.176   3.419   2.073  0.3561 -0.1205  0.1085
 1329SOL    HW1 4230   1.272   3.426   2.071  0.2861  1.1296 -0.3602
 1329SOL    HW2 4231   1.157   3.329   2.048  1.4157 -0.4687  0.5064
 1330SOL     OW 4232   4.419   1.599   0.987  0.2430 -0.0459 -0.5971
 1330SOL    HW1 4233   4.338   1.568   0.947 -1.5475  0.7735  2.1175
 1330SOL    HW2 4234   4.392   1.640   1.069  3.2785  1.6971 -0.2981
 1331SOL     OW 4235   3.298   3.161   0.436 -0.1712 -0.2051  0.6844
 1331SOL    HW1 4236   3.257   3.189   0.354  0.7120 -0.3461  0.1818
 1331SOL    HW2 4237   3.229   3.172   0.502 -0.6412  0.6944  0.0708
 1332SOL     OW 4238   2.954   2.394   2.310 -0.1402  0.3528  0.1064
 1332SOL    HW1 4239   2.932   2.484   2.335  1.1484  0.0728  2.6165
 1332SOL    HW2 4240   2.869   2.349   2.308 -0.5925  1.0920  1.2964
 1333SOL     OW 4241   1.829   0.867   2.906  0.9065  0.2161  0.0027
 1333SOL    HW1 4242   1.832   0.781   2.863 -0.2335 -0.1217  0.5455
 1333SOL    HW2 4243   1.832   0.930   2.834 -0.2561 -0.3341 -0.5680
 1334SOL     OW 4244   2.403   3.651   0.484 -0.2807 -0.5110 -0.4203
 1334SOL    HW1 4245   2.397   3.666   0.389  1.4210 -2.0458 -0.8198
 1334SOL    HW2 4246   2.346   3.576   0.499  0.3764 -1.0158 -0.4372
 1335SOL     OW 4247   4.081   3.167   0.389 -0.3774  0.3537 -0.1378
 1335SOL    HW1 4248   3.994   3.155   0.353 -1.4027  1.3152  1.8710
 1335SOL    HW2 4249   4.080   3.119   0.472  0.9923  0.4047 -0.0602
 1336SOL     OW 4250   1.142   2.406   0.475  0.6583  0.1611 -0.1344
 1336SOL    HW1 4251   1.169   2.446   0.392  1.8282 -0.6542 -0.1653
 1336SOL    HW2 4252   1.224   2.385   0.519  0.0507  0.2773  1.0984
 1337SOL     OW 4253   0.436   1.299   0.092 -0.4573  0.4533 -0.6094
 1337SOL    HW1 4254   0.476   1.270   0.175 -0.0034  0.8380 -0.6861
 1337SOL    HW2 4255   0.463   1.390   0.084 -0.2304  0.3281 -1.3410
 1338SOL     OW 4256   1.676   2.116   1.621  0.0538 -0.8077 -0.2786
 1338SOL    HW1 4257   1.636   2.097   1.706 -0.7638  0.9016 -0.2297
 1338SOL    HW2 4258   1.677   2.032   1.575 -1.1818 -1.4096  0.7351
 1339SOL     OW 4259   3.144   1.904   2.071 -0.2560 -0.1660 -0.3189
 1339SOL    HW1 4260   3.131   1.998   2.063  0.2526 -0.0772 -0.1330
 1339SOL    HW2 4261   3.055   1.868   2.075 -0.4823  0.4666  1.5229
 1340SOL     OW 4262   3.367   1.708   0.409  0.0604 -0.3619  0.0154
 1340SOL    HW1 4263   3.412   1.628   0.382  0.9121 -0.0691  0.5551
 1340SOL    HW2 4264   3.317   1.683   0.486  0.3193 -0.3741  0.1784
 1341SOL     OW 4265   1.291   3.407   1.455  0.2207  0.2256  0.5600
 1341SOL    HW1 4266   1.353   3.362   1.396  0.2187 -2.5746  2.4980
 1341SOL    HW2 4267   1.313   3.500   1.446  1.0902 -0.1692 -2.7902
 1342SOL     OW 4268   2.694   1.935   0.847 -0.1061 -0.6689 -0.0003
 1342SOL    HW1 4269   2.712   1.995   0.775 -1.7567  0.9647  0.8324
 1342SOL    HW2 4270   2.723   1.849   0.816 -0.8731 -0.0599 -2.6394
 1343SOL     OW 4271   2.301   3.016   1.330  0.0034  0.4134 -0.0322
 1343SOL    HW1 4272   2.329   2.951   1.266 -0.2500  1.0627 -0.8108
 1343SOL    HW2 4273   2.353   3.094   1.309  1.2281  0.1195  1.6758
 1344SOL     OW 4274   3.740   4.415   2.904 -0.3341  0.2301 -0.5168
 1344SOL    HW1 4275   3.779   4.340   2.948 -0.1555  1.1319  0.9098
 1344SOL    HW2 4276   3.668   4.377   2.852 -0.4182 -0.8963  0.3689
 1345SOL     OW 4277   1.785   0.196   2.195  0.2908 -0.4058 -0.4096
 1345SOL    HW1 4278   1.734   0.246   2.131  0.3095 -0.1886 -0.2529
 1345SOL    HW2 4279   1.876   0.214   2.173  0.3052  0.9461  0.6769
 1346SOL     OW 4280   0.669   0.825   2.149  0.6232  0.0170  0.0924
 1346SOL    HW1 4281   0.743   0.886   2.161 -0.1917  0.9084  0.7348
 1346SOL    HW2 4282   0.622   0.829   2.232 -0.2777 -0.3801 -0.3923
 1347SOL     OW 4283   1.905   0.976   0.895  0.5386 -0.0301 -0.0466
 1347SOL    HW1 4284   1.833   0.914   0.884  0.6055 -0.1744  0.3049
 1347SOL    HW2 4285   1.896   1.037   0.822 -0.4057  0.4102  0.4088
 1348SOL     OW 4286   2.342   2.847   0.180  0.1185  0.1101 -0.1461
 1348SOL    HW1 4287   2.363   2.879   0.268  2.2524 -1.5407  0.0169
 1348SOL    HW2 4288   2.388   2.764   0.172 -2.0695 -1.0563 -1.9571
 1349SOL     OW 4289   0.307   4.252   2.982 -0.0362  0.1362 -0.1351
 1349SOL    HW1 4290   0.271   4.215   2.902  0.2809 -0.3159 -0.0748
 1349SOL    HW2 4291   0.334   4.176   3.034 -1.9519  0.3157  1.2413
 1350SOL     OW 4292   3.366   2.146   1.991  0.3713  0.2013  0.0880
 1350SOL    HW1 4293   3.373   2.052   1.975  1.4470 -0.1270  2.2834
 1350SOL    HW2 4294   3.347   2.154   2.084 -0.8277  2.1571 -0.2579
 1351SOL     OW 4295   2.683   2.571   0.440  0.6704  0.3838  0.6335
 1351SOL    HW1 4296   2.644   2.489   0.471 -1.7123  0.5261 -1.6267
 1351SOL    HW2 4297   2.762   2.543   0.394  0.0420 -0.6436  0.1273
 1352SOL     OW 4298   0.464   2.287   0.452 -0.1140 -0.0347 -0.4569
 1352SOL    HW1 4299   0.417   2.275   0.534 -0.0423 -1.5621 -0.6020
 1352SOL    HW2 4300   0.509   2.370   0.462 -1.1466  0.4350  0.5228
 1353SOL     OW 4301   0.069   1.889   1.470 -0.1040 -0.2645  0.6066
 1353SOL    HW1 4302   0.157   1.915   1.444  0.9788 -0.7718  3.4071
 1353SOL    HW2 4303   0.027   1.971   1.498 -0.1042 -0.1913  0.3948
 1354SOL     OW 4304   1.500   3.185   1.241 -0.0403 -0.7643 -0.7188
 1354SOL    HW1 4305   1.581   3.152   1.203  1.0488  1.5610 -0.5831
 1354SOL    HW2 4306   1.431   3.154   1.182  0.9387 -2.5724 -0.9765
 1355SOL     OW 4307   1.434   0.729   1.327  0.0416  0.2192 -0.2298
 1355SOL    HW1 4308   1.397   0.790   1.263  0.7709  0.5831 -0.3146
 1355SOL    HW2 4309   1.513   0.694   1.285 -0.7048 -1.2862 -0.4439
 1356SOL     OW 4310   3.253   1.846   0.984  0.2402  0.0028 -0.1000
 1356SOL    HW1 4311   3.205   1.859   1.066 -1.3069 -0.0523 -0.9618
 1356SOL    HW2 4312   3.200   1.890   0.918  0.8203 -1.0044 -1.2707
 1357SOL     OW 4313   3.007   2.694   2.094  0.1801 -0.0874  0.3604
 1357SOL    HW1 4314   3.034   2.757   2.161  0.8876  1.4176 -1.2738
 1357SOL    HW2 4315   3.089   2.667   2.053 -0.3421  0.2264 -0.9249
 1358SOL     OW 4316   2.349   1.141   1.749  0.4816  0.3499  0.3050
 1358SOL    HW1 4317   2.346   1.231   1.716  1.4656  1.1988  2.3396
 1358SOL    HW2 4318   2.336   1.087   1.671  0.5590  2.2328 -1.1041
 1359SOL     OW 4319   3.683   0.633   2.768 -0.6147 -0.1361  0.2514
 1359SOL    HW1 4320   3.652   0.708   2.817  1.5449  2.1946 -1.6517
 1359SOL    HW2 4321   3.769   0.613   2.805 -1.1553 -1.7493  0.7393
 1360SOL     OW 4322   1.330   2.657   2.275 -0.0071  0.4017 -0.1204
 1360SOL    HW1 4323   1.246   2.671   2.318 -0.0524 -0.2760  0.0262
 1360SOL    HW2 4324   1.331   2.564   2.253  0.5790  0.4624 -0.3844
 1361SOL     OW 4325   3.556   3.638   0.057  0.2613 -0.2321  0.1420
 1361SOL    HW1 4326   3.533   3.578   0.128  2.2527  0.6221  1.6204
 1361SOL    HW2 4327   3.634   3.599   0.017 -1.0978 -0.9486 -1.9901
 1362SOL     OW 4328   0.993   3.611   1.490  0.0031 -0.1738  0.1471
 1362SOL    HW1 4329   0.953   3.561   1.561  0.3455 -0.8746 -0.1423
 1362SOL    HW2 4330   0.976   3.703   1.513  0.6899 -0.3539  1.4754
 1363SOL     OW 4331   2.496   3.583   1.977  0.0110 -0.2831 -0.2175
 1363SOL    HW1 4332   2.429   3.615   2.037  0.4757  1.0813 -0.3923
 1363SOL    HW2 4333   2.544   3.516   2.027  0.5105  0.9590  1.0142
 1364SOL     OW 4334   1.670   0.769   1.959  0.1891  0.0550 -0.4504
 1364SOL    HW1 4335   1.628   0.698   1.910 -1.7088 -0.1886  1.4114
 1364SOL    HW2 4336   1.670   0.739   2.049  3.3592  0.6140 -0.1594
 1365SOL     OW 4337   3.906   0.504   2.882  0.7392  0.6552  0.1527
 1365SOL    HW1 4338   3.940   0.571   2.941 -0.3303  0.1041  1.4404
 1365SOL    HW2 4339   3.885   0.429   2.939  0.6252 -0.2733 -1.0578
 1366SOL     OW 4340   1.758   0.433   1.355  0.2321  0.0986 -0.2910
 1366SOL    HW1 4341   1.752   0.515   1.308 -0.3505  0.0500 -0.3071
 1366SOL    HW2 4342   1.670   0.395   1.350  0.6202 -0.7772 -0.7417
 1367SOL     OW 4343   3.887   2.097   0.390 -0.3265  0.3849  0.3748
 1367SOL    HW1 4344   3.971   2.053   0.377 -0.3494  0.3970  0.1874
 1367SOL    HW2 4345   3.844   2.046   0.458 -0.6700 -0.3408 -0.3680
 1368SOL     OW 4346   4.073   2.283   2.550  0.3254  0.6747 -0.4151
 1368SOL    HW1 4347   4.150   2.316   2.505  0.4762 -0.6813 -1.2125
 1368SOL    HW2 4348   4.106   2.211   2.605 -0.5333 -1.1635 -2.1422
 1369SOL     OW 4349   3.166   0.412   0.260 -0.0861  0.7548  0.6015
 1369SOL    HW1 4350   3.153   0.443   0.170  0.0449 -2.5219 -0.6889
 1369SOL    HW2 4351   3.079   0.412   0.298 -0.7555 -0.9848 -0.7583
 1370SOL     OW 4352   1.422   1.311   2.362 -0.2675 -0.1008 -0.0776
 1370SOL    HW1 4353   1.507   1.293   2.322 -0.8697  0.9354 -1.8935
 1370SOL    HW2 4354   1.424   1.262   2.445  1.9863 -0.2878 -0.1847
 1371SOL     OW 4355   0.960   0.163   1.469  0.2679  0.0849  0.4052
 1371SOL    HW1 4356   0.954   0.241   1.413  2.0701 -0.0616 -0.0494
 1371SOL    HW2 4357   0.923   0.092   1.416  1.5072  0.0456 -0.4484
 1372SOL     OW 4358   1.207   3.416   1.742 -0.2363  0.1045 -0.1070
 1372SOL    HW1 4359   1.204   3.452   1.653  0.5337  0.7443  0.1222
 1372SOL    HW2 4360   1.195   3.321   1.729  0.9680  0.0495 -0.9934
 1373SOL     OW 4361   3.791   0.222   0.704 -0.1248 -0.3439  0.9113
 1373SOL    HW1 4362   3.722   0.261   0.758 -2.9927 -2.2063 -1.1370
 1373SOL    HW2 4363   3.763   0.132   0.690  0.9804 -0.2651 -2.7445
 1374SOL     OW 4364   2.224   1.757   1.386  0.1044 -0.2918  0.5238
 1374SOL    HW1 4365   2.169   1.703   1.443 -0.3300 -0.5070 -0.0825
 1374SOL    HW2 4366   2.314   1.735   1.411 -0.0803 -0.3502  1.1473
 1375SOL     OW 4367   1.905   4.398   0.750  0.5037 -0.2659 -0.0142
 1375SOL    HW1 4368   1.909   4.432   0.840  2.0077 -1.5700  0.4401
 1375SOL    HW2 4369   1.965   4.324   0.749  0.7506 -0.1008 -2.1941
 1376SOL     OW 4370   3.958   2.166   0.126 -0.1796  0.3985  0.1389
 1376SOL    HW1 4371   3.910   2.168   0.209  0.9404  0.3761  0.8095
 1376SOL    HW2 4372   4.009   2.085   0.130  1.0115  1.1209  0.1059
 1377SOL     OW 4373   2.708   1.546   1.937 -0.4331  0.3716 -0.6115
 1377SOL    HW1 4374   2.650   1.478   1.901  0.1588  0.1240 -1.1159
 1377SOL    HW2 4375   2.701   1.618   1.875  2.1044 -0.7809 -2.4032
 1378SOL     OW 4376   1.815   1.229   0.549  0.9719  0.1209  0.0713
 1378SOL    HW1 4377   1.858   1.144   0.536  1.3952  0.2460  0.6022
 1378SOL    HW2 4378   1.873   1.276   0.608 -0.2370  0.0440  1.3642
 1379SOL     OW 4379   1.313   2.448   1.455 -0.2019 -0.0032 -0.0748
 1379SOL    HW1 4380   1.350   2.418   1.372  1.8112  0.1529  0.7191
 1379SOL    HW2 4381   1.275   2.369   1.494 -0.8236 -0.1538 -0.9670
 1380SOL     OW 4382   1.546   2.453   0.162  0.0676  0.6440  0.3843
 1380SOL    HW1 4383   1.601   2.436   0.085 -1.4022 -0.4499 -0.4732
 1380SOL    HW2 4384   1.557   2.547   0.178  1.3543  0.6548 -0.4112
 1381SOL     OW 4385   1.056   1.096   0.361  0.3847 -0.0168  0.3738
 1381SOL    HW1 4386   1.053   1.101   0.457  2.0469  1.0010  0.3992
 1381SOL    HW2 4387   1.137   1.049   0.342 -0.3734 -1.0071 -0.5471
 1382SOL     OW 4388   1.749   3.079   1.239 -0.1510 -0.3970  0.1241
 1382SOL    HW1 4389   1.755   3.111   1.328 -1.3684 -0.2494  0.1690
 1382SOL    HW2 4390   1.743   2.984   1.247  1.8966 -0.5717  0.0674
 1383SOL     OW 4391   2.518   1.517   2.876  0.1977  0.0871 -0.0587
 1383SOL    HW1 4392   2.582   1.579   2.841  0.3900 -1.0754 -1.8631
 1383SOL    HW2 4393   2.502   1.455   2.805 -0.8869 -1.2548  1.2779
 1384SOL     OW 4394   3.600   1.013   1.345 -0.1778  0.2269  0.5006
 1384SOL    HW1 4395   3.633   0.924   1.331 -1.4174 -0.3461  1.1373
 1384SOL    HW2 4396   3.562   1.037   1.261  0.9051  0.5037  0.0677
 1385SOL     OW 4397   4.245   0.865   0.358  0.4851  0.0568 -0.6104
 1385SOL    HW1 4398   4.317   0.863   0.295  1.3761 -0.5564  0.4021
 1385SOL    HW2 4399   4.227   0.773   0.378  1.6545  0.2325  1.5874
 1386SOL     OW 4400   3.054   2.548   0.579  0.1563 -0.3110 -0.3218
 1386SOL    HW1 4401   3.148   2.562   0.576  0.2743 -1.2239 -1.1592
 1386SOL    HW2 4402   3.028   2.539   0.487 -1.0787  1.9369 -0.2924
 1387SOL     OW 4403   3.326   2.838   0.765 -0.2534 -0.3889  0.3829
 1387SOL    HW1 4404   3.260   2.769   0.772 -0.7495  0.1752  1.7232
 1387SOL    HW2 4405   3.358   2.849   0.855  0.4300  0.5341  0.0392
 1388SOL     OW 4406   0.732   3.983   0.853 -0.5070 -0.6106  0.8159
 1388SOL    HW1 4407   0.667   3.956   0.918  0.6605  1.5686  3.0426
 1388SOL    HW2 4408   0.810   3.932   0.875 -0.4616 -0.7488  0.3388
 1389SOL     OW 4409   2.039   3.541   0.563 -0.2291 -0.2505  0.5294
 1389SOL    HW1 4410   2.054   3.506   0.476  1.3585  0.4317  0.5011
 1389SOL    HW2 4411   2.049   3.636   0.553 -0.7575 -0.0984  1.3185
 1390SOL     OW 4412   0.929   3.831   0.089  0.8304  0.3708 -0.1036
 1390SOL    HW1 4413   0.848   3.858   0.131  1.1384  0.4916  0.4293
 1390SOL    HW2 4414   0.979   3.912   0.078  2.2854 -0.0035  2.6272
 1391SOL     OW 4415   1.240   0.265   2.982 -0.4390 -0.0571 -0.1028
 1391SOL    HW1 4416   1.203   0.236   3.065  1.9260 -3.2880 -0.0078
 1391SOL    HW2 4417   1.204   0.205   2.917  1.4014 -0.6671 -0.6186
 1392SOL     OW 4418   2.117   3.992   0.008  0.7250 -0.4039  0.1375
 1392SOL    HW1 4419   2.184   3.996   0.077 -0.1069 -0.8105  0.9744
 1392SOL    HW2 4420   2.133   3.909  -0.037  2.2083  0.5105 -1.1689
 1393SOL     OW 4421   4.054   1.320   0.150  0.2711  0.1193  0.0985
 1393SOL    HW1 4422   4.054   1.224   0.157  1.5566  0.0026 -0.9607
 1393SOL    HW2 4423   4.142   1.345   0.179  0.0946  0.9247 -0.0619
 1394SOL     OW 4424   1.490   3.090   1.489  0.4350  0.4920 -0.3882
 1394SOL    HW1 4425   1.487   3.123   1.399  1.0443  0.6228 -0.3611
 1394SOL    HW2 4426   1.528   3.162   1.540 -0.0701  0.4875  0.0093
 1395SOL     OW 4427   1.300   0.480   1.150 -0.3463  0.2045 -0.0793
 1395SOL    HW1 4428   1.359   0.467   1.224 -1.0399  1.7578  0.7974
 1395SOL    HW2 4429   1.344   0.438   1.077  1.9365  1.4045  0.5090
 1396SOL     OW 4430   1.452   0.343   0.131  0.0189  0.2189 -0.4044
 1396SOL    HW1 4431   1.455   0.334   0.226  3.2287  1.8240 -0.2393
 1396SOL    HW2 4432   1.378   0.288   0.104  0.6416 -2.4202  2.7410
 1397SOL     OW 4433   1.615   2.643   1.450 -0.0009 -0.0655  0.3050
 1397SOL    HW1 4434   1.550   2.685   1.507 -0.0273 -0.7124  0.7770
 1397SOL    HW2 4435   1.624   2.555   1.487  0.1299 -0.4317 -0.5874
 1398SOL     OW 4436   2.260   2.839   1.828  0.1094  0.1727  0.3748
 1398SOL    HW1 4437   2.278   2.745   1.830  0.7870  0.2794 -0.1376
 1398SOL    HW2 4438   2.330   2.877   1.882  0.6834  0.4925 -0.5689
 1399SOL     OW 4439   2.387   3.301   1.178 -0.2972  0.4051  0.2912
 1399SOL    HW1 4440   2.405   3.237   1.110  1.7131 -1.1822  2.1878
 1399SOL    HW2 4441   2.292   3.316   1.173 -0.4888 -1.1008 -1.5699
 1400SOL     OW 4442   2.154   3.211   1.473 -0.1316  0.0675  0.0323
 1400SOL    HW1 4443   2.194   3.164   1.400 -0.4803 -0.5926  0.2552
 1400SOL    HW2 4444   2.142   3.145   1.540  4.0928  1.3731  2.4448
 1401SOL     OW 4445   3.671   0.978   0.656  0.4796  0.0303 -0.0323
 1401SOL    HW1 4446   3.737   0.909   0.648  1.2962  0.8433 -0.4900
 1401SOL    HW2 4447   3.590   0.931   0.674  0.7361 -1.1745 -1.7223
 1402SOL     OW 4448   1.660   1.806   0.390 -0.2012 -0.7106 -0.1428
 1402SOL    HW1 4449   1.695   1.840   0.308 -0.5223  0.9968  0.3935
 1402SOL    HW2 4450   1.690   1.715   0.393 -0.9115 -1.0870 -2.5570
 1403SOL     OW 4451   2.589   1.543   2.213 -0.0912  0.3677 -0.1850
 1403SOL    HW1 4452   2.508   1.584   2.185  0.4027  1.0303 -0.6766
 1403SOL    HW2 4453   2.640   1.533   2.132  0.1168 -0.4999  0.0413
 1404SOL     OW 4454   2.609   3.522   2.440  0.4602 -0.1391 -0.2099
 1404SOL    HW1 4455   2.570   3.607   2.421 -1.3992 -0.8334  0.3167
 1404SOL    HW2 4456   2.595   3.471   2.360  2.2782  0.2355 -0.8274
 1405SOL     OW 4457   4.090   2.287   1.651 -0.6050  0.1190  0.4270
 1405SOL    HW1 4458   4.014   2.236   1.680  0.1765 -0.7666  0.9420
 1405SOL    HW2 4459   4.059   2.378   1.654 -1.9540 -0.2847 -0.3508
 1406SOL     OW 4460   1.301   4.030   0.466  0.4424  0.3700 -0.2055
 1406SOL    HW1 4461   1.311   3.935   0.459  0.3024  0.3217  0.2443
 1406SOL    HW2 4462   1.325   4.050   0.556  0.1958  0.7277 -0.2204
 1407SOL     OW 4463   2.871   1.069   0.334  0.2972  0.5200 -0.4735
 1407SOL    HW1 4464   2.842   1.068   0.242  2.6518 -0.3069 -1.2752
 1407SOL    HW2 4465   2.870   0.977   0.360  1.7499  0.5029 -0.4124
 1408SOL     OW 4466   3.427   3.483   0.216  0.2785 -0.4166 -0.4427
 1408SOL    HW1 4467   3.440   3.460   0.308  2.0486  2.1420  0.0417
 1408SOL    HW2 4468   3.355   3.546   0.217  2.4147  2.2102 -0.2441
 1409SOL     OW 4469   2.624   3.197   0.276 -0.3362  0.0658 -0.7614
 1409SOL    HW1 4470   2.586   3.165   0.194 -2.5903  0.4112  0.0819
 1409SOL    HW2 4471   2.718   3.196   0.260 -0.6317 -1.1223 -2.8886
 1410SOL     OW 4472   1.999   0.917   1.547  0.0405  0.5103  0.4760
 1410SOL    HW1 4473   1.931   0.908   1.613 -0.5084  0.4894 -0.0876
 1410SOL    HW2 4474   1.954   0.950   1.470  0.1188 -2.0202 -0.7684
 1411SOL     OW 4475   0.910   2.786   2.575 -0.2875 -0.3419 -0.1048
 1411SOL    HW1 4476   0.822   2.759   2.549 -1.2918  2.9574 -0.5393
 1411SOL    HW2 4477   0.897   2.870   2.620  2.6569  0.2977 -0.2712
 1412SOL     OW 4478   1.511   3.757   1.289  0.0186 -0.1211  0.6248
 1412SOL    HW1 4479   1.505   3.844   1.248  3.0318  0.3901  1.0129
 1412SOL    HW2 4480   1.509   3.696   1.215 -0.6590  0.3786  0.2204
 1413SOL     OW 4481   3.644   3.140   3.057  0.4144 -0.2481  0.0818
 1413SOL    HW1 4482   3.712   3.182   3.109  0.8188  1.9713 -2.0189
 1413SOL    HW2 4483   3.639   3.050   3.090  0.6561  0.9381  3.7700
 1414SOL     OW 4484   0.077   3.380   0.540 -0.0374 -0.3150  0.3827
 1414SOL    HW1 4485   0.048   3.469   0.519 -0.9258 -0.5235  0.7107
 1414SOL    HW2 4486   0.107   3.345   0.456 -0.7006 -0.0822  0.0389
 1415SOL     OW 4487   3.076   1.034   2.214  0.1409  0.1613 -0.0686
 1415SOL    HW1 4488   3.116   1.100   2.272  0.7792 -0.5759  0.3489
 1415SOL    HW2 4489   3.041   0.968   2.274  0.5029 -0.4416 -0.5086
 1416SOL     OW 4490   3.431   2.146   3.003 -0.3443  0.4923  0.3379
 1416SOL    HW1 4491   3.454   2.055   3.024  1.0570  1.1223  1.6496
 1416SOL    HW2 4492   3.380   2.139   2.922 -0.6945 -1.5004  0.6726
 1417SOL     OW 4493   2.994   1.701   0.679  0.2384  0.8589 -0.4064
 1417SOL    HW1 4494   3.003   1.680   0.772  1.3322  0.0575 -0.6717
 1417SOL    HW2 4495   3.075   1.669   0.640 -1.8696 -2.7050 -2.3573
 1418SOL     OW 4496   2.018   2.435   0.903  0.3481  0.5470 -0.0711
 1418SOL    HW1 4497   1.944   2.481   0.863  0.7397  0.9513 -0.3420
 1418SOL    HW2 4498   1.992   2.343   0.903 -0.2162  0.7004 -0.0248
 1419SOL     OW 4499   0.638   0.486   0.262 -0.7478 -0.6959 -0.0464
 1419SOL    HW1 4500   0.716   0.473   0.208 -0.2118  0.6497  0.3655
 1419SOL    HW2 4501   0.611   0.398   0.287 -0.1508 -1.2574 -1.2964
 1420SOL     OW 4502   2.106   3.203   1.865 -0.3830 -0.0410 -0.9619
 1420SOL    HW1 4503   2.042   3.274   1.858  1.4857  1.7111 -1.3502
 1420SOL    HW2 4504   2.124   3.178   1.774  0.5125  0.5047 -0.9500
 1421SOL     OW 4505   0.511   2.002   1.264  0.6002  0.2165  0.0440
 1421SOL    HW1 4506   0.581   2.047   1.217  0.2114  1.5369  0.6592
 1421SOL    HW2 4507   0.439   1.999   1.202  0.6997  0.2502 -0.0735
 1422SOL     OW 4508   3.630   2.721   2.149  0.6838  0.1530 -0.3590
 1422SOL    HW1 4509   3.661   2.708   2.059  0.3458 -0.5485 -0.3772
 1422SOL    HW2 4510   3.656   2.642   2.195  1.1364  0.6510  0.2436
 1423SOL     OW 4511   2.623   3.421   2.172 -0.0061  0.3792  0.4381
 1423SOL    HW1 4512   2.589   3.332   2.163  0.6560  0.3363 -2.8445
 1423SOL    HW2 4513   2.718   3.409   2.175  0.0435  0.9256  2.0102
 1424SOL     OW 4514   0.639   4.187   0.161  0.2622  0.2132 -0.1322
 1424SOL    HW1 4515   0.729   4.219   0.173 -0.6239  2.4167  1.0370
 1424SOL    HW2 4516   0.612   4.224   0.077 -0.5552  2.2033  0.9432
 1425SOL     OW 4517   2.899   0.846   1.004  0.1663 -0.2316  0.2035
 1425SOL    HW1 4518   2.901   0.942   1.009  1.0095 -0.1731 -0.9083
 1425SOL    HW2 4519   2.989   0.819   1.024 -0.2638 -0.8711  1.4138
 1426SOL     OW 4520   0.850   4.056   1.429 -0.1331  0.4520 -0.1214
 1426SOL    HW1 4521   0.889   3.987   1.483  2.2665  0.6766 -1.4330
 1426SOL    HW2 4522   0.756   4.049   1.445  0.3053 -0.9868  2.2475
 1427SOL     OW 4523   2.887   2.014   0.487  0.2099 -0.0341  0.0707
 1427SOL    HW1 4524   2.967   2.046   0.446  0.7818  1.0807  1.9180
 1427SOL    HW2 4525   2.886   2.057   0.573 -3.9682  2.6166 -0.9873
 1428SOL     OW 4526   3.482   0.380   2.435  0.3701 -0.3508 -0.1585
 1428SOL    HW1 4527   3.561   0.426   2.404  0.3792 -0.2188  0.0578
 1428SOL    HW2 4528   3.481   0.298   2.386  0.8421 -0.5169  0.1014
 1429SOL     OW 4529   1.584   2.262   0.789  0.2872 -0.1335 -0.1736
 1429SOL    HW1 4530   1.544   2.340   0.751  0.7217  0.7306  1.1024
 1429SOL    HW2 4531   1.677   2.269   0.765  0.2331 -0.5675 -0.5323
 1430SOL     OW 4532   3.464   0.671   3.060  0.6394  0.5610  0.0303
 1430SOL    HW1 4533   3.554   0.696   3.079  2.0393 -2.4496 -1.8182
 1430SOL    HW2 4534   3.445   0.602   3.123  0.2161  0.1127 -0.5799
 1431SOL     OW 4535   3.206   0.847   1.286  0.6590 -0.2276 -0.3538
 1431SOL    HW1 4536   3.203   0.851   1.191 -3.0322 -1.8486 -0.4489
 1431SOL    HW2 4537   3.205   0.939   1.314  1.2857  0.2610 -1.8183
 1432SOL     OW 4538   1.907   1.589   1.408  0.1468  0.1651 -0.1253
 1432SOL    HW1 4539   1.969   1.519   1.387 -1.7734 -1.3977 -0.8586
 1432SOL    HW2 4540   1.894   1.634   1.325 -0.2196  0.0441 -0.1342
 1433SOL     OW 4541   2.931   1.220   2.979  0.3447 -0.2244 -0.2265
 1433SOL    HW1 4542   2.900   1.310   2.985  0.4486 -0.0838 -1.4592
 1433SOL    HW2 4543   2.868   1.168   3.029  0.1587  0.4971  0.2965
 1434SOL     OW 4544   3.742   1.577   1.742 -0.0947 -0.0313  0.1985
 1434SOL    HW1 4545   3.749   1.671   1.760 -0.2646  0.3361 -1.4923
 1434SOL    HW2 4546   3.745   1.536   1.828  0.3281  1.5010  0.9497
 1435SOL     OW 4547   1.353   4.017   1.188 -0.1642  0.4102 -0.4684
 1435SOL    HW1 4548   1.398   4.097   1.215  0.1599  0.0236  0.1651
 1435SOL    HW2 4549   1.264   4.027   1.222 -0.1204  0.4941 -0.3782
 1436SOL     OW 4550   2.907   1.630   1.664  0.4421  0.3869  0.2670
 1436SOL    HW1 4551   2.945   1.667   1.744  2.2043 -0.4946 -0.1168
 1436SOL    HW2 4552   2.959   1.669   1.593 -0.7402  0.7327 -0.4466
 1437SOL     OW 4553   3.237   1.634   1.763  0.2935  0.2011  0.5192
 1437SOL    HW1 4554   3.172   1.684   1.812  1.4941 -0.0497  2.4895
 1437SOL    HW2 4555   3.242   1.550   1.809 -0.1784 -0.9703 -1.4684
 1438SOL     OW 4556   2.432   1.381   1.984 -0.5560 -0.1222  0.2301
 1438SOL    HW1 4557   2.375   1.416   2.053 -0.1929  0.6329  0.1532
 1438SOL    HW2 4558   2.399   1.419   1.903 -0.3367 -0.1785  0.1118
 1439SOL     OW 4559   2.955   1.116   1.976  0.0220 -0.5669  0.2323
 1439SOL    HW1 4560   2.964   1.058   2.052  0.1853 -2.5582 -1.2363
 1439SOL    HW2 4561   3.040   1.158   1.968 -0.3540  0.5988  1.8180
 1440SOL     OW 4562   0.277   3.563   1.180 -0.3266 -0.0225  0.0660
 1440SOL    HW1 4563   0.347   3.604   1.128 -0.8986  1.4351  0.4068
 1440SOL    HW2 4564   0.197   3.604   1.148 -0.8108 -0.0726  1.1892
 1441SOL     OW 4565   0.223   3.876   1.169 -0.3706 -0.1529  0.0996
 1441SOL    HW1 4566   0.200   3.839   1.084 -0.8661  1.9655 -0.7649
 1441SOL    HW2 4567   0.285   3.946   1.149 -0.7515  0.6022  1.4322
 1442SOL     OW 4568   1.089   4.115   2.285 -0.1243 -0.4269  0.0839
 1442SOL    HW1 4569   1.067   4.202   2.252  0.3556  0.4211  1.8561
 1442SOL    HW2 4570   1.009   4.086   2.331  0.1923 -0.2683  0.7485
 1443SOL     OW 4571   2.071   4.207   0.161 -0.1049 -0.1701 -0.7950
 1443SOL    HW1 4572   2.165   4.194   0.168 -0.2913 -2.0631 -1.3613
 1443SOL    HW2 4573   2.045   4.156   0.085 -1.1235  3.1209 -2.8959
 1444SOL     OW 4574   1.193   1.597   1.737 -0.1989  0.0296 -0.2926
 1444SOL    HW1 4575   1.256   1.577   1.668 -0.0767 -0.3539 -0.0642
 1444SOL    HW2 4576   1.229   1.559   1.816  0.8697  2.5441  0.5101
 1445SOL     OW 4577   2.765   0.569   2.866 -0.2288  0.4408 -0.7847
 1445SOL    HW1 4578   2.780   0.607   2.952 -0.0612 -2.2682  0.4507
 1445SOL    HW2 4579   2.847   0.527   2.843 -0.6334  0.1622 -1.7748
 1446SOL     OW 4580   1.665   1.183   1.458  0.5216  0.4616  0.1450
 1446SOL    HW1 4581   1.680   1.089   1.457  1.3553  0.5580 -2.0428
 1446SOL    HW2 4582   1.585   1.194   1.509  0.4734 -1.4138  0.5353
 1447SOL     OW 4583   3.102   1.847   1.252  0.2900  0.2049  0.1213
 1447SOL    HW1 4584   3.010   1.874   1.244 -0.0587 -1.1608 -0.6170
 1447SOL    HW2 4585   3.115   1.837   1.346  0.0244  1.5178  0.3175
 1448SOL     OW 4586   3.229   1.579   0.594 -0.4112 -0.1136  0.5037
 1448SOL    HW1 4587   3.289   1.567   0.667  0.5447 -0.6806 -0.3544
 1448SOL    HW2 4588   3.217   1.492   0.557  0.2908  0.3488 -0.8998
 1449SOL     OW 4589   4.366   3.679   1.189  0.0518  0.0681  0.0291
 1449SOL    HW1 4590   4.408   3.699   1.106 -1.1284 -0.8163 -0.8157
 1449SOL    HW2 4591   4.285   3.635   1.165  0.1796 -1.1491  1.6819
 1450SOL     OW 4592   1.797   1.499   2.706 -0.2149 -0.4057  0.0433
 1450SOL    HW1 4593   1.845   1.434   2.759 -1.2687  0.4374  2.1729
 1450SOL    HW2 4594   1.831   1.583   2.736  0.0244  0.1032 -1.5734
 1451SOL     OW 4595   2.073   0.839   1.092  0.4228  0.3162  0.4885
 1451SOL    HW1 4596   2.024   0.890   1.027  1.0521 -0.3021 -0.4971
 1451SOL    HW2 4597   2.075   0.750   1.057  1.1477  0.0579  1.1417
 1452SOL     OW 4598   3.332   3.871   2.647 -0.3520 -0.5296  0.7651
 1452SOL    HW1 4599   3.302   3.851   2.558 -1.8173 -0.7623  1.2912
 1452SOL    HW2 4600   3.300   3.798   2.700  1.6764 -1.0998  1.2900
 1453SOL     OW 4601   3.413   0.401   2.069 -0.0370  0.1876 -0.2292
 1453SOL    HW1 4602   3.408   0.497   2.067 -0.7403  0.1581 -2.0219
 1453SOL    HW2 4603   3.396   0.374   1.979 -2.6203 -1.7381  0.6930
 1454SOL     OW 4604   2.839   3.187   2.457 -0.1575 -0.2523  0.5183
 1454SOL    HW1 4605   2.751   3.149   2.457 -0.1892 -0.1816 -0.2972
 1454SOL    HW2 4606   2.843   3.241   2.378  1.1023 -1.4005 -0.2499
 1455SOL     OW 4607   3.354   4.344   2.035 -0.2430  0.2662  0.0620
 1455SOL    HW1 4608   3.443   4.352   2.000 -0.3913 -1.0851 -0.6856
 1455SOL    HW2 4609   3.306   4.416   1.996  0.0218 -0.2290 -1.2087
 1456SOL     OW 4610   3.428   2.099   1.367  0.6002  0.1645 -0.3758
 1456SOL    HW1 4611   3.473   2.019   1.338  1.7817  0.8375 -0.4502
 1456SOL    HW2 4612   3.418   2.087   1.461  0.7261 -0.0924 -0.3930
 1457SOL     OW 4613   1.673   1.475   2.455  0.0720  0.2919  0.1463
 1457SOL    HW1 4614   1.733   1.474   2.530  0.0169  0.7266  0.2005
 1457SOL    HW2 4615   1.705   1.405   2.398 -1.2351 -1.5799  1.5979
 1458SOL     OW 4616   0.733   2.683   2.373 -0.5412 -0.3890  0.2236
 1458SOL    HW1 4617   0.746   2.624   2.447  2.0518  0.2611  0.3766
 1458SOL    HW2 4618   0.676   2.634   2.313 -0.9244 -1.7953  1.6722
 1459SOL     OW 4619   2.160   1.398   2.947 -0.0482  0.7630 -0.0670
 1459SOL    HW1 4620   2.185   1.326   2.889 -0.7552  0.1721  0.3470
 1459SOL    HW2 4621   2.188   1.369   3.034 -2.2641 -0.0052  0.4460
 1460SOL     OW 4622   3.034   1.794   1.840 -0.1931  0.1450 -0.0481
 1460SOL    HW1 4623   2.956   1.848   1.839 -0.1561  0.1953 -0.8593
 1460SOL    HW2 4624   3.097   1.844   1.892 -0.8339 -0.1051  0.9863
 1461SOL     OW 4625   2.721   1.247   1.859 -0.4464  0.1361 -0.2369
 1461SOL    HW1 4626   2.804   1.207   1.888 -0.6631 -0.1736 -0.0374
 1461SOL    HW2 4627   2.659   1.225   1.928 -0.2535  2.0281  0.5922
 1462SOL     OW 4628   4.125   1.452   1.782  0.7035 -0.0447  0.6311
 1462SOL    HW1 4629   4.107   1.495   1.698  0.2016 -0.9343  0.2680
 1462SOL    HW2 4630   4.214   1.419   1.774  1.0067  0.7066  0.8219
 1463SOL     OW 4631   0.396   2.471   2.412  0.2534  0.5648 -0.1975
 1463SOL    HW1 4632   0.412   2.501   2.502 -1.3488 -0.3493  0.4397
 1463SOL    HW2 4633   0.307   2.436   2.414  0.9757 -1.5451 -1.5905
 1464SOL     OW 4634   2.726   1.701   0.709 -0.1943  0.1661  0.3357
 1464SOL    HW1 4635   2.696   1.610   0.705  0.3948 -0.1372  1.8253
 1464SOL    HW2 4636   2.814   1.699   0.672 -0.9020  0.5319 -1.4584
 1465SOL     OW 4637   1.917   0.770   0.695  0.0957  0.1539  0.0897
 1465SOL    HW1 4638   1.996   0.778   0.748  0.0283 -1.0407  0.4001
 1465SOL    HW2 4639   1.917   0.679   0.665 -0.4335  0.5243 -1.0674
 1466SOL     OW 4640   3.710   0.954   2.614 -0.3167  0.1419 -1.0413
 1466SOL    HW1 4641   3.765   0.876   2.606  0.2509  0.4125  0.1127
 1466SOL    HW2 4642   3.769   1.027   2.592 -0.1812  0.4356  0.2450
 1467SOL     OW 4643   2.261   1.058   2.009 -0.3513  0.1018  0.2491
 1467SOL    HW1 4644   2.239   0.968   1.985 -0.4342  0.1068  0.3071
 1467SOL    HW2 4645   2.286   1.099   1.926 -0.8587  0.1809  0.1317
 1468SOL     OW 4646   2.481   2.888   2.010 -0.3401  0.0646 -0.4923
 1468SOL    HW1 4647   2.569   2.859   2.034  0.3796  1.9602 -0.6510
 1468SOL    HW2 4648   2.424   2.854   2.080  0.4772 -1.2868 -0.4573
 1469SOL     OW 4649   2.851   1.988   1.942 -0.3073  0.3260 -0.6483
 1469SOL    HW1 4650   2.769   2.038   1.934 -1.1081 -0.8485 -0.1061
 1469SOL    HW2 4651   2.840   1.938   2.023  0.6125 -0.4621 -0.9973
 1470SOL     OW 4652   0.873   0.209   0.864  0.1509 -0.4421 -0.1217
 1470SOL    HW1 4653   0.849   0.223   0.773 -0.7318 -2.6011 -0.2938
 1470SOL    HW2 4654   0.941   0.141   0.861  1.6131  0.9186  0.7472
 1471SOL     OW 4655   2.632   0.859   0.657  0.6244  0.3242 -0.4565
 1471SOL    HW1 4656   2.677   0.835   0.738  1.1294  0.0551 -0.8046
 1471SOL    HW2 4657   2.661   0.948   0.638 -1.8741  1.6137  1.2630
 1472SOL     OW 4658   1.903   1.457   2.149  0.0347 -0.3556  0.4941
 1472SOL    HW1 4659   1.876   1.420   2.233  0.2928  1.3173  1.3571
 1472SOL    HW2 4660   1.959   1.390   2.109  0.5258 -0.8648  1.9965
 1473SOL     OW 4661   0.234   0.305   2.492  0.0388 -0.1082  0.4308
 1473SOL    HW1 4662   0.233   0.242   2.564  1.4683  1.0946  1.5671
 1473SOL    HW2 4663   0.235   0.251   2.413  1.0911 -1.5204  1.3624
 1474SOL     OW 4664   1.063   1.205   2.108 -0.0284 -0.0149 -0.2213
 1474SOL    HW1 4665   1.032   1.277   2.163  0.1979 -1.3890  1.8306
 1474SOL    HW2 4666   1.159   1.210   2.114  0.2748  2.2337 -3.8820
 1475SOL     OW 4667   4.266   3.139   1.686 -0.2823 -0.1894  0.5964
 1475SOL    HW1 4668   4.218   3.078   1.742 -0.3939  0.4335  1.1906
 1475SOL    HW2 4669   4.352   3.099   1.674 -1.0529 -1.5415 -0.8483
 1476SOL     OW 4670   1.889   2.090   1.162  0.1973  0.0805 -0.3475
 1476SOL    HW1 4671   1.807   2.132   1.191 -0.2058 -1.4205  0.8472
 1476SOL    HW2 4672   1.899   2.015   1.221  2.9280  0.7317  0.1287
 1477SOL     OW 4673   4.083   1.638   2.781  0.0552 -0.3749 -0.4672
 1477SOL    HW1 4674   4.171   1.677   2.780 -0.3145  0.5004 -0.3749
 1477SOL    HW2 4675   4.061   1.634   2.874  0.0645 -0.7491 -0.4819
 1478SOL     OW 4676   1.958   1.922   2.689 -0.0818 -0.6104  0.1523
 1478SOL    HW1 4677   1.896   1.935   2.761  0.4641  1.4348  0.3300
 1478SOL    HW2 4678   1.904   1.895   2.615 -1.0638  0.1308  0.5733
 1479SOL     OW 4679   0.705   2.801   1.670 -0.2526  0.1569  0.0504
 1479SOL    HW1 4680   0.681   2.892   1.652  0.7671  0.0867 -1.9306
 1479SOL    HW2 4681   0.633   2.749   1.634 -0.1953  0.1337 -0.0300
 1480SOL     OW 4682   2.179   3.845   2.685 -0.1609  0.6733  0.5361
 1480SOL    HW1 4683   2.177   3.937   2.713  1.7710  1.0798 -0.4674
 1480SOL    HW2 4684   2.268   3.816   2.706 -0.1292 -0.3805 -0.9402
 1481SOL     OW 4685   4.212   3.862   0.649  0.5546 -0.3856 -0.3070
 1481SOL    HW1 4686   4.124   3.892   0.625  0.1918 -0.3200  1.0110
 1481SOL    HW2 4687   4.198   3.808   0.727  1.6084 -0.9854 -0.5176
 1482SOL     OW 4688   1.579   1.397   1.871 -0.2115 -0.2351  0.7092
 1482SOL    HW1 4689   1.604   1.331   1.936  1.8535 -0.4802 -0.2496
 1482SOL    HW2 4690   1.628   1.475   1.895 -1.1206  0.3597  0.6855
 1483SOL     OW 4691   1.066   2.141   3.006  0.3734 -0.6204  0.2247
 1483SOL    HW1 4692   1.125   2.168   3.076  0.4995  0.3916 -0.2635
 1483SOL    HW2 4693   1.000   2.210   3.002  1.7387  0.6882 -2.2782
 1484SOL     OW 4694   3.691   1.287   2.223  0.7612 -0.0848 -0.1285
 1484SOL    HW1 4695   3.686   1.197   2.190  2.2692 -0.2534  0.0365
 1484SOL    HW2 4696   3.602   1.306   2.253  0.2731 -1.3031 -0.7101
 1485SOL     OW 4697   3.698   2.074   1.540 -0.1525  0.0384 -0.2734
 1485SOL    HW1 4698   3.657   2.078   1.626  0.2831  1.4564 -0.1155
 1485SOL    HW2 4699   3.722   1.982   1.529  0.9598  0.0498  1.6923
 1486SOL     OW 4700   3.437   2.877   2.629  0.1153 -0.1400  0.1321
 1486SOL    HW1 4701   3.409   2.947   2.688  0.0675 -0.7279  0.8122
 1486SOL    HW2 4702   3.511   2.836   2.674 -0.2335 -0.9135  0.0109
 1487SOL     OW 4703   1.468   1.265   1.657  0.1993 -0.1037 -0.0510
 1487SOL    HW1 4704   1.492   1.297   1.744  1.0983  0.2535 -0.4107
 1487SOL    HW2 4705   1.409   1.332   1.622  1.1862  0.6314 -0.3618
 1488SOL     OW 4706   1.461   2.894   2.112 -0.1716  0.0504  0.0956
 1488SOL    HW1 4707   1.556   2.909   2.121 -0.2379  0.8978 -0.5599
 1488SOL    HW2 4708   1.438   2.846   2.192  0.8183 -0.2095  0.2457
 1489SOL     OW 4709   2.385   4.085   0.099 -0.7755 -0.3063 -0.0582
 1489SOL    HW1 4710   2.395   4.170   0.142  0.2174 -0.3219 -0.2476
 1489SOL    HW2 4711   2.456   4.082   0.035 -0.1512 -1.7085  0.6647
 1490SOL     OW 4712   1.789   4.243   2.640 -0.3077 -0.4543  0.0773
 1490SOL    HW1 4713   1.761   4.262   2.730  1.3257 -1.3020  0.8070
 1490SOL    HW2 4714   1.865   4.298   2.626  0.7622 -1.8891  0.0212
 1491SOL     OW 4715   2.338   2.337   2.773 -0.5035  0.2406 -0.1420
 1491SOL    HW1 4716   2.308   2.285   2.847  0.4074 -0.2418 -0.0995
 1491SOL    HW2 4717   2.335   2.428   2.805 -1.9489  0.2327 -0.1709
 1492SOL     OW 4718   1.203   3.908   1.478  0.4206 -0.2848 -0.4781
 1492SOL    HW1 4719   1.118   3.897   1.520  0.2038 -1.6465 -1.1897
 1492SOL    HW2 4720   1.222   4.001   1.486 -1.0849  0.0311 -0.1926
 1493SOL     OW 4721   0.516   2.262   2.897  0.4228 -0.1504 -0.4974
 1493SOL    HW1 4722   0.540   2.222   2.981  1.5509  0.2609 -0.6049
 1493SOL    HW2 4723   0.473   2.345   2.922  2.2131  0.7684 -0.3118
 1494SOL     OW 4724   3.886   1.559   3.068 -0.5856 -0.0432  0.3602
 1494SOL    HW1 4725   3.811   1.578   3.012 -1.2642 -0.5214  1.0943
 1494SOL    HW2 4726   3.934   1.642   3.071 -1.0835  0.2727 -0.1035
 1495SOL     OW 4727   4.189   3.416   0.332 -0.1038  0.0336  0.3132
 1495SOL    HW1 4728   4.138   3.484   0.376  1.0467  0.3558  1.2118
 1495SOL    HW2 4729   4.151   3.334   0.363  0.0396  0.2691  1.1570
 1496SOL     OW 4730   2.925   1.516   2.096  0.4193 -0.4211  0.5138
 1496SOL    HW1 4731   2.853   1.529   2.035  2.2051 -0.5212 -1.7642
 1496SOL    HW2 4732   2.887   1.465   2.167 -2.1891  1.1809  0.4228
 1497SOL     OW 4733   2.065   3.804   1.522  0.2403  0.3466  0.1375
 1497SOL    HW1 4734   2.063   3.714   1.488 -0.2992  0.2617  0.3814
 1497SOL    HW2 4735   1.987   3.811   1.576 -0.0921  1.1854 -0.4310
 1498SOL     OW 4736   0.137   2.363   2.453 -0.8263  0.2882  0.0700
 1498SOL    HW1 4737   0.079   2.430   2.490 -0.9507 -0.0781  0.5506
 1498SOL    HW2 4738   0.175   2.319   2.529  1.9067  2.0196 -0.1405
 1499SOL     OW 4739   3.677   2.380   2.843 -0.2642 -0.0178 -0.3059
 1499SOL    HW1 4740   3.597   2.425   2.817  0.2746 -0.1898 -2.4796
 1499SOL    HW2 4741   3.746   2.422   2.791  0.7301 -1.3031 -0.0792
 1500SOL     OW 4742   1.698   2.283   1.264  0.2128 -0.2733 -0.0412
 1500SOL    HW1 4743   1.672   2.325   1.182  1.2488 -0.7242 -0.6113
 1500SOL    HW2 4744   1.618   2.239   1.295  0.0655 -0.9387 -1.3167
 1501SOL     OW 4745   1.461   2.293   1.882  0.0173 -0.1010  0.0949
 1501SOL    HW1 4746   1.521   2.218   1.883 -0.5371 -0.5474  0.3829
 1501SOL    HW2 4747   1.496   2.350   1.814 -0.1368 -1.0968 -0.8434
 1502SOL     OW 4748   2.819   1.301   2.282  0.0521 -0.1759 -0.4362
 1502SOL    HW1 4749   2.750   1.340   2.336  1.0483  1.0697 -0.0021
 1502SOL    HW2 4750   2.815   1.208   2.300 -0.0171  0.1467  1.3696
 1503SOL     OW 4751   2.726   2.127   1.161 -0.1406 -0.3530  0.3087
 1503SOL    HW1 4752   2.799   2.160   1.213  1.0328  2.1168 -2.5582
 1503SOL    HW2 4753   2.716   2.191   1.091 -4.2319 -1.3312 -0.2477
 1504SOL     OW 4754   3.080   3.965   2.223 -0.1911 -0.0562 -0.2855
 1504SOL    HW1 4755   3.142   3.928   2.159  0.8795  1.0450  0.0789
 1504SOL    HW2 4756   3.021   4.020   2.170  2.1233  2.7602 -0.1745
 1505SOL     OW 4757   3.614   0.414   2.956 -0.4649  0.5603 -0.1506
 1505SOL    HW1 4758   3.624   0.495   2.905  0.4346  0.9820  0.6447
 1505SOL    HW2 4759   3.695   0.365   2.939 -1.1317 -0.3239 -0.8555
 1506SOL     OW 4760   0.132   1.739   0.755  0.1416 -0.4996 -0.1421
 1506SOL    HW1 4761   0.113   1.829   0.783  0.4542 -1.3098  3.0378
 1506SOL    HW2 4762   0.112   1.685   0.832 -1.4906 -3.4005 -2.3910
 1507SOL     OW 4763   1.464   0.395   1.331  0.3183 -0.0583 -0.3953
 1507SOL    HW1 4764   1.441   0.407   1.423  0.2529 -1.9464 -0.1183
 1507SOL    HW2 4765   1.445   0.303   1.313  2.8397 -0.4576 -1.5672
 1508SOL     OW 4766   3.191   1.082   1.455  0.2933  0.0106 -0.3483
 1508SOL    HW1 4767   3.150   1.169   1.448  1.0417  0.3890 -0.0964
 1508SOL    HW2 4768   3.284   1.098   1.441  0.3649 -0.8536 -0.9623
 1509SOL     OW 4769   3.101   4.284   2.204 -0.4679 -0.3065 -0.0734
 1509SOL    HW1 4770   3.185   4.260   2.167 -0.7677 -1.0211 -0.3080
 1509SOL    HW2 4771   3.037   4.233   2.154 -1.0575  0.3870 -0.0468
 1510SOL     OW 4772   0.698   3.922   0.158 -0.2266 -0.3832  0.1840
 1510SOL    HW1 4773   0.632   3.905   0.091  0.0795 -0.5868 -0.0679
 1510SOL    HW2 4774   0.697   4.017   0.169 -2.5087 -0.5468  2.1697
 1511SOL     OW 4775   1.090   3.171   2.638 -0.4146 -0.0540  0.0910
 1511SOL    HW1 4776   1.057   3.232   2.703 -0.3173 -0.4382  0.5072
 1511SOL    HW2 4777   1.023   3.102   2.634  1.1264 -1.8434  2.3284
 1512SOL     OW 4778   2.366   2.778   1.487  0.1224 -0.7863 -0.2311
 1512SOL    HW1 4779   2.277   2.759   1.517  0.7280  0.5829  2.6834
 1512SOL    HW2 4780   2.360   2.864   1.445  0.3267  0.1646  1.6013
 1513SOL     OW 4781   0.934   2.869   2.147  0.4273  0.8670  0.2645
 1513SOL    HW1 4782   0.948   2.915   2.065 -1.0372  0.1356 -0.4375
 1513SOL    HW2 4783   0.861   2.915   2.189  0.2207  0.3685  0.4650
 1514SOL     OW 4784   2.613   0.747   2.352 -0.9028 -0.0101 -0.1096
 1514SOL    HW1 4785   2.557   0.669   2.349 -0.9522 -0.0878  1.6033
 1514SOL    HW2 4786   2.698   0.714   2.380 -0.2631  0.2510 -1.6956
 1515SOL     OW 4787   3.692   1.350   1.592  0.0534  0.4027 -0.3797
 1515SOL    HW1 4788   3.765   1.362   1.532 -1.4992  0.4749 -2.3844
 1515SOL    HW2 4789   3.705   1.416   1.660  1.3670  0.9962 -1.1662
 1516SOL     OW 4790   0.034   0.441   1.463  0.4430 -0.1319  0.1003
 1516SOL    HW1 4791   0.023   0.455   1.369 -0.6042 -0.4927  0.1529
 1516SOL    HW2 4792   0.087   0.515   1.492  0.5602  0.1225 -0.7269
 1517SOL     OW 4793   1.934   1.240   1.479  0.8200 -0.0987 -0.2007
 1517SOL    HW1 4794   1.963   1.283   1.399  0.7370  2.5963  1.1296
 1517SOL    HW2 4795   1.839   1.240   1.474  0.8358 -0.9332 -0.5847
 1518SOL     OW 4796   2.079   4.055   2.972  0.2632 -0.2287  0.0803
 1518SOL    HW1 4797   2.012   4.038   2.906  0.5167 -0.5076 -0.1063
 1518SOL    HW2 4798   2.043   4.018   3.053  1.5211 -3.3666 -0.6359
 1519SOL     OW 4799   2.495   2.374   0.786 -0.3710 -0.3235 -0.0790
 1519SOL    HW1 4800   2.430   2.445   0.782 -0.1106 -0.0967 -0.3565
 1519SOL    HW2 4801   2.446   2.299   0.819 -0.7251 -0.0990 -0.0816
 1520SOL     OW 4802   4.293   1.849   2.815 -0.0907  0.1390  0.0543
 1520SOL    HW1 4803   4.202   1.878   2.807  0.6421  2.8787  0.6454
 1520SOL    HW2 4804   4.317   1.870   2.905  0.6336 -2.3738  0.5395
 1521SOL     OW 4805   2.330   2.844   2.714  0.4111  0.2770  0.1665
 1521SOL    HW1 4806   2.314   2.750   2.722  0.1624  0.3226  0.2247
 1521SOL    HW2 4807   2.251   2.878   2.672 -0.6596  0.8462  2.4591
 1522SOL     OW 4808   3.878   0.941   2.271  0.3135  0.5654 -0.3956
 1522SOL    HW1 4809   3.968   0.917   2.249  0.8764  0.2259  2.0271
 1522SOL    HW2 4810   3.855   1.008   2.206  1.6840 -0.5131 -2.0998
 1523SOL     OW 4811   1.094   2.425   2.472 -0.8553 -0.0268  0.2215
 1523SOL    HW1 4812   1.030   2.396   2.407 -0.8064  0.2382  0.0529
 1523SOL    HW2 4813   1.118   2.514   2.444 -1.9033  0.6726  1.4048
 1524SOL     OW 4814   0.464   0.851   1.987  0.2581  0.9130  0.2323
 1524SOL    HW1 4815   0.505   0.835   1.902 -0.3170  0.1606  0.0830
 1524SOL    HW2 4816   0.537   0.868   2.046  0.6409  1.9170 -0.5013
 1525SOL     OW 4817   3.291   4.274   2.586 -0.1886 -0.5446 -0.0497
 1525SOL    HW1 4818   3.373   4.263   2.635 -0.5285 -1.3257  0.3730
 1525SOL    HW2 4819   3.268   4.366   2.597  0.6049 -0.3345 -0.1243
 1526SOL     OW 4820   3.192   2.463   0.069  0.0657  0.3815  0.5356
 1526SOL    HW1 4821   3.140   2.485  -0.009 -0.5343  0.6262  0.9919
 1526SOL    HW2 4822   3.228   2.546   0.098  1.4376  0.0962 -0.2605
 1527SOL     OW 4823   0.407   0.309   0.536 -0.4272  0.2104  0.0120
 1527SOL    HW1 4824   0.502   0.317   0.545 -0.3480 -2.3337  2.8347
 1527SOL    HW2 4825   0.372   0.370   0.600 -0.4482 -2.2438  2.5135
 1528SOL     OW 4826   4.046   0.037   2.298  0.4133 -0.4138  0.4189
 1528SOL    HW1 4827   4.006   0.124   2.303 -0.0871 -0.6621  0.9117
 1528SOL    HW2 4828   3.983  -0.016   2.248  0.5135 -0.5987  0.4871
 1529SOL     OW 4829   1.994   4.245   0.420  0.3277 -0.1624 -0.4786
 1529SOL    HW1 4830   2.021   4.268   0.332  0.5408 -0.8361 -0.5980
 1529SOL    HW2 4831   1.925   4.308   0.441  0.9282  0.6003 -0.7531
 1530SOL     OW 4832   4.101   0.519   1.186 -0.1134 -0.3982 -0.3099
 1530SOL    HW1 4833   4.197   0.524   1.180 -0.0703 -0.2702  0.4622
 1530SOL    HW2 4834   4.085   0.437   1.233 -0.3461  0.1223  0.5337
 1531SOL     OW 4835   3.772   4.164   2.517 -0.4624 -0.4451 -0.1944
 1531SOL    HW1 4836   3.845   4.105   2.538  0.0354 -0.1233 -0.9771
 1531SOL    HW2 4837   3.694   4.115   2.542  0.0404  0.6697  4.4127
 1532SOL     OW 4838   2.374   0.043   2.966 -0.1651  0.0323  0.0624
 1532SOL    HW1 4839   2.388   0.126   2.919  0.5112  0.6416  1.2833
 1532SOL    HW2 4840   2.279   0.035   2.974 -0.2413  0.6486 -0.1621
 1533SOL     OW 4841   0.837   4.227   2.394  0.3458 -0.1663  0.3167
 1533SOL    HW1 4842   0.754   4.213   2.439 -0.2264 -0.2733 -0.7231
 1533SOL    HW2 4843   0.880   4.297   2.443 -0.3263 -0.1564  0.9080
 1534SOL     OW 4844   2.529   4.222   0.965 -0.2575 -0.3510 -0.6490
 1534SOL    HW1 4845   2.567   4.272   1.036 -0.5536 -1.1967  0.1212
 1534SOL    HW2 4846   2.441   4.257   0.955 -0.0066  0.1859 -1.0240
 1535SOL     OW 4847   0.159   2.492   1.324 -0.0515 -0.9127  0.1353
 1535SOL    HW1 4848   0.141   2.408   1.366 -3.9252 -1.0296 -1.3803
 1535SOL    HW2 4849   0.180   2.469   1.233 -1.2195 -0.2924 -0.3096
 1536SOL     OW 4850   2.182   4.291   2.315 -0.1155  0.5683  0.8058
 1536SOL    HW1 4851   2.259   4.338   2.347  0.4882  0.9602 -1.0754
 1536SOL    HW2 4852   2.213   4.202   2.301  0.4368  1.0152 -1.1883
 1537SOL     OW 4853   3.732   2.667   0.043 -0.2486  0.2191  0.0946
 1537SOL    HW1 4854   3.672   2.670   0.118 -0.3455 -1.5989  0.1236
 1537SOL    HW2 4855   3.781   2.586   0.055  2.5100  1.7655  0.2563
 1538SOL     OW 4856   0.280   0.218   1.639  0.3200  0.2410 -0.1480
 1538SOL    HW1 4857   0.296   0.271   1.561  1.7167 -1.3711 -1.0347
 1538SOL    HW2 4858   0.365   0.180   1.661 -0.6018 -1.7324  0.3282
 1539SOL     OW 4859   2.853   4.278   3.071  0.0198  0.0008  0.3225
 1539SOL    HW1 4860   2.948   4.265   3.075  0.1677  0.0594 -1.6585
 1539SOL    HW2 4861   2.842   4.368   3.042 -0.5749 -0.4242 -0.8489
 1540SOL     OW 4862   2.908   3.898   0.930  0.3584  0.3074  0.1936
 1540SOL    HW1 4863   2.970   3.971   0.936  1.2962 -0.3425 -1.1857
 1540SOL    HW2 4864   2.822   3.940   0.924  0.9222  1.3365 -1.1526
 1541SOL     OW 4865   3.216   4.273   1.245  0.2348 -0.0513  0.3853
 1541SOL    HW1 4866   3.147   4.326   1.205 -0.5029 -0.5693  0.9435
 1541SOL    HW2 4867   3.218   4.299   1.337 -1.4021 -2.1815  1.1248
 1542SOL     OW 4868   4.184   0.113   0.822 -0.3536  0.2971 -0.2404
 1542SOL    HW1 4869   4.108   0.106   0.880  0.2918 -0.8737  0.4900
 1542SOL    HW2 4870   4.197   0.208   0.813 -0.9701  0.5185  0.8654
 1543SOL     OW 4871   1.002   1.112   1.852 -0.0705 -0.1746  0.2879
 1543SOL    HW1 4872   1.003   1.146   1.941 -1.1066  0.6743  0.0043
 1543SOL    HW2 4873   1.094   1.101   1.829  0.2452  0.9246  0.9754
 1544SOL     OW 4874   1.088   1.859   3.014  0.1237  0.6643  0.3235
 1544SOL    HW1 4875   1.183   1.855   3.008  0.1822  1.3587  0.6874
 1544SOL    HW2 4876   1.067   1.952   3.011 -0.5951  0.4899 -0.4190
 1545SOL     OW 4877   1.755   0.354   1.610  0.1120  0.5914  0.2270
 1545SOL    HW1 4878   1.672   0.325   1.648 -0.4331  0.5356 -0.9613
 1545SOL    HW2 4879   1.736   0.367   1.518  1.4145  0.6736 -0.0506
 1546SOL     OW 4880   1.612   4.348   2.153  0.2262 -0.8060  0.3086
 1546SOL    HW1 4881   1.645   4.318   2.238 -2.1687  0.8323  1.9592
 1546SOL    HW2 4882   1.667   4.424   2.132  0.9770 -1.3516  0.2664
 1547SOL     OW 4883   2.079   0.504   0.730 -0.3735  0.0548 -0.2502
 1547SOL    HW1 4884   2.174   0.516   0.722 -0.2661  1.1334  1.9276
 1547SOL    HW2 4885   2.047   0.515   0.640  1.4938  0.2765 -0.9517
 1548SOL     OW 4886   3.921   1.286   1.829  0.2768 -0.6124 -0.2116
 1548SOL    HW1 4887   3.989   1.345   1.796 -0.4068 -0.2753 -1.0565
 1548SOL    HW2 4888   3.875   1.337   1.896  1.6128 -1.2684  1.2619
 1549SOL     OW 4889   0.253   0.205   0.289  0.2377 -0.2047  0.4426
 1549SOL    HW1 4890   0.306   0.236   0.363  1.1662 -1.0952  0.1752
 1549SOL    HW2 4891   0.195   0.138   0.328 -0.1899  0.2427  0.5929
 1550SOL     OW 4892   2.911   1.270   1.229 -0.6126  0.3269  0.2288
 1550SOL    HW1 4893   2.831   1.234   1.266 -1.7828  2.9016  0.4641
 1550SOL    HW2 4894   2.964   1.293   1.305 -1.7376  2.8794  0.3448
 1551SOL     OW 4895   3.480   4.301   0.107  0.4790 -0.0622  0.2522
 1551SOL    HW1 4896   3.517   4.254   0.032  0.6792 -0.9333  0.8835
 1551SOL    HW2 4897   3.535   4.276   0.181 -1.1938 -1.2326  1.1782
 1552SOL     OW 4898   1.937   4.045   1.089  0.2117  0.7689 -0.1153
 1552SOL    HW1 4899   2.030   4.022   1.089  0.0580 -0.3705  2.6621
 1552SOL    HW2 4900   1.934   4.130   1.132 -0.0724  0.0847  1.2933
 1553SOL     OW 4901   2.034   0.336   1.177  0.1428  0.2781 -0.3445
 1553SOL    HW1 4902   2.096   0.379   1.235  1.3607 -0.4594 -1.0620
 1553SOL    HW2 4903   1.964   0.400   1.165 -0.2226  0.4042  2.0043
 1554SOL     OW 4904   3.457   0.533   2.665 -0.0762  0.0189  0.4113
 1554SOL    HW1 4905   3.468   0.483   2.584 -0.4806 -1.4119  1.2019
 1554SOL    HW2 4906   3.546   0.559   2.690  0.0242  0.7440 -0.6333
 1555SOL     OW 4907   2.608   2.671   1.825 -0.7354 -0.1985 -0.1042
 1555SOL    HW1 4908   2.653   2.621   1.757 -0.4727  0.8908 -0.7580
 1555SOL    HW2 4909   2.562   2.740   1.778 -0.3834  0.6949  0.8354
 1556SOL     OW 4910   2.461   3.903   1.313 -0.3026  0.0102  0.0088
 1556SOL    HW1 4911   2.462   3.889   1.218  1.3834  1.4093 -0.2325
 1556SOL    HW2 4912   2.417   3.987   1.324 -1.7032 -0.7641  0.6221
 1557SOL     OW 4913   2.092   4.052   1.459  0.0049 -0.0638 -0.6654
 1557SOL    HW1 4914   2.016   4.085   1.507 -0.0638 -1.7676  0.4947
 1557SOL    HW2 4915   2.089   3.957   1.472  1.9704 -0.2277 -1.1160
 1558SOL     OW 4916   0.631   4.202   0.575 -0.2695 -0.2682 -1.2711
 1558SOL    HW1 4917   0.565   4.136   0.596  0.3943 -0.3863  0.6505
 1558SOL    HW2 4918   0.582   4.284   0.567 -0.8026 -0.5676 -1.1134
 1559SOL     OW 4919   3.283   4.093   1.972  0.2524  0.3935 -0.5475
 1559SOL    HW1 4920   3.321   4.177   1.998 -1.8181  1.6924 -1.4638
 1559SOL    HW2 4921   3.325   4.073   1.888  2.2258 -0.5868  0.5851
 1560SOL     OW 4922   0.255   2.693   1.514 -0.4089 -0.5564  0.1353
 1560SOL    HW1 4923   0.176   2.670   1.465  0.3281 -1.1571 -0.8236
 1560SOL    HW2 4924   0.245   2.649   1.598 -0.6077 -1.5722 -0.3945
 1561SOL     OW 4925   2.386   0.086   2.060 -0.2974 -0.2425  0.2669
 1561SOL    HW1 4926   2.322   0.032   2.014 -1.0098  0.6227  0.2176
 1561SOL    HW2 4927   2.470   0.042   2.046 -0.9518 -1.7092  0.8106
 1562SOL     OW 4928   2.176   1.302   2.123 -0.0348 -0.1357 -0.6413
 1562SOL    HW1 4929   2.235   1.289   2.197  0.1751  0.6350 -0.6650
 1562SOL    HW2 4930   2.190   1.225   2.068 -0.2923 -0.7818  0.1765
 1563SOL     OW 4931   1.014   2.423   2.972  0.4604 -0.2296  0.3895
 1563SOL    HW1 4932   1.084   2.410   3.036 -0.1263  0.8466  1.2949
 1563SOL    HW2 4933   1.058   2.422   2.887  1.3857 -0.8028  0.8591
 1564SOL     OW 4934   2.579   3.641   1.712 -0.2015 -0.0174 -0.1245
 1564SOL    HW1 4935   2.563   3.610   1.801  1.5414 -0.1174  0.2051
 1564SOL    HW2 4936   2.544   3.729   1.709  1.4700  0.7514  1.3333
 1565SOL     OW 4937   2.474   3.893   1.048 -0.1237  0.0280 -0.0660
 1565SOL    HW1 4938   2.534   3.948   0.997  0.7244 -1.4294 -0.6853
 1565SOL    HW2 4939   2.504   3.804   1.033 -0.1117 -0.5179  2.6815
 1566SOL     OW 4940   1.904   2.386   1.398 -0.0443 -0.4677  0.1725
 1566SOL    HW1 4941   1.877   2.403   1.488 -3.1967 -0.1057 -0.7421
 1566SOL    HW2 4942   1.828   2.345   1.357  0.8069  0.5699 -2.6773
 1567SOL     OW 4943   2.335   0.533   0.618  0.2536  0.1426 -0.7116
 1567SOL    HW1 4944   2.329   0.624   0.590 -0.1375 -0.2376 -1.9161
 1567SOL    HW2 4945   2.426   0.522   0.646  0.0579  1.1545  0.4174
 1568SOL     OW 4946   1.560   3.543   0.069 -0.4787 -0.2342  0.8428
 1568SOL    HW1 4947   1.611   3.616   0.035  0.1511 -0.8571  0.4247
 1568SOL    HW2 4948   1.476   3.582   0.095 -0.2393  0.5882  0.4089
 1569SOL     OW 4949   3.237   0.101   0.903 -0.1284  0.3354 -0.2484
 1569SOL    HW1 4950   3.269   0.021   0.860  1.7970  1.0093 -0.1574
 1569SOL    HW2 4951   3.294   0.111   0.980 -0.0989  1.9912 -0.4562
 1570SOL     OW 4952   1.913   2.197   0.909  0.6614  0.4454  0.4481
 1570SOL    HW1 4953   1.908   2.139   0.986  1.0620 -1.2041 -0.7147
 1570SOL    HW2 4954   1.947   2.141   0.839  2.1105  2.3936 -0.4862
 1571SOL     OW 4955   3.025   4.104   1.773 -0.1831  0.4272  0.7443
 1571SOL    HW1 4956   3.054   4.192   1.750  0.2258  0.1066  0.0004
 1571SOL    HW2 4957   3.103   4.049   1.762 -0.5799 -0.1260  0.6195
 1572SOL     OW 4958   2.684   0.297   1.229 -0.0397  0.6942 -0.8957
 1572SOL    HW1 4959   2.697   0.238   1.155  2.0422 -0.1926  0.0997
 1572SOL    HW2 4960   2.771   0.308   1.267 -1.1458  0.3563  1.9708
 1573SOL     OW 4961   1.001   3.932   3.030  0.1809 -0.2025  0.0576
 1573SOL    HW1 4962   1.044   3.891   3.105  0.5237 -1.6919 -0.9050
 1573SOL    HW2 4963   0.919   3.884   3.019  1.2337 -1.7079 -1.9594
 1574SOL     OW 4964   2.201   3.978   1.116 -0.2768  0.2445 -0.6494
 1574SOL    HW1 4965   2.221   4.028   1.196 -0.3458  0.6694 -0.8934
 1574SOL    HW2 4966   2.279   3.986   1.062  0.6082 -1.8126  0.2355
 1575SOL     OW 4967   1.727   4.019   2.217  0.3918 -0.1442 -0.4999
 1575SOL    HW1 4968   1.780   4.041   2.140 -0.5376 -0.2404 -1.1828
 1575SOL    HW2 4969   1.713   3.925   2.211 -0.9636  0.0583 -1.0893
 1576SOL     OW 4970   1.370   1.874   3.044  0.2118 -0.2830  0.9349
 1576SOL    HW1 4971   1.391   1.820   3.120  0.8701  0.6590  1.4434
 1576SOL    HW2 4972   1.407   1.826   2.969  0.9266 -0.4599  1.3930
 1577SOL     OW 4973   3.739   4.338   2.252 -0.2521  0.1821  0.2116
 1577SOL    HW1 4974   3.735   4.271   2.320 -2.4917  0.5777  0.5303
 1577SOL    HW2 4975   3.739   4.421   2.300  1.6003  0.4768 -0.2087
 1578SOL     OW 4976   2.620   0.600   0.588 -0.2102 -1.1382 -0.0397
 1578SOL    HW1 4977   2.625   0.692   0.615 -0.5360 -1.0703 -0.2072
 1578SOL    HW2 4978   2.711   0.572   0.580 -0.1002 -0.5583 -0.9149
 1579SOL     OW 4979   3.476   4.153   1.288 -0.0258  0.0235  0.2663
 1579SOL    HW1 4980   3.548   4.184   1.233 -0.3697  1.2739  0.4878
 1579SOL    HW2 4981   3.397   4.168   1.235 -0.4349  1.9276  1.3181
 1580SOL     OW 4982   3.361   1.935   0.561 -0.3232  0.2531 -0.0116
 1580SOL    HW1 4983   3.363   1.861   0.500 -0.6136 -0.2765  0.5996
 1580SOL    HW2 4984   3.453   1.958   0.574 -0.1175 -1.0395  0.9993
 1581SOL     OW 4985   0.976   1.543   2.553  0.2299  0.5760  0.4443
 1581SOL    HW1 4986   1.056   1.582   2.589  0.4285 -0.5027  1.1923
 1581SOL    HW2 4987   0.920   1.531   2.629 -0.3291  0.5646  0.0295
 1582SOL     OW 4988   1.012   2.963   0.161 -0.1248 -0.5486 -0.3330
 1582SOL    HW1 4989   0.928   3.005   0.144 -0.4717 -0.7329  0.8606
 1582SOL    HW2 4990   1.074   3.011   0.106 -0.8773  0.0843 -0.6500
 1583SOL     OW 4991   3.607   1.283   2.827  0.2305 -0.0925 -0.5438
 1583SOL    HW1 4992   3.616   1.319   2.739  0.2441 -1.9135 -1.3246
 1583SOL    HW2 4993   3.535   1.221   2.821  0.6929 -0.7682  0.5549
 1584SOL     OW 4994   1.379   4.373   1.157  0.3922  0.3012 -0.1515
 1584SOL    HW1 4995   1.357   4.434   1.228 -0.6811 -0.4895  0.2126
 1584SOL    HW2 4996   1.459   4.330   1.187 -0.3568 -0.4382  0.8805
 1585SOL     OW 4997   3.370   3.555   1.163 -0.1085  0.2285  0.3259
 1585SOL    HW1 4998   3.445   3.598   1.122 -1.1126  0.8796 -0.9214
 1585SOL    HW2 4999   3.382   3.462   1.145  0.2741  0.3591 -0.1142
 1586SOL     OW 5000   1.873   3.127   2.787  0.0394 -0.0147 -0.1625
 1586SOL    HW1 5001   1.778   3.131   2.777 -0.0344 -0.9980  0.0473
 1586SOL    HW2 5002   1.890   3.161   2.875 -0.3302 -1.8250  0.6480
 1587SOL     OW 5003   4.023   1.789   3.085  0.4835  0.5969  0.3018
 1587SOL    HW1 5004   3.998   1.848   3.014  0.2692 -2.2470 -2.2339
 1587SOL    HW2 5005   4.116   1.807   3.100  1.0455  0.0974 -2.1149
 1588SOL     OW 5006   0.551   1.621   0.142  0.5543 -0.6050 -0.4163
 1588SOL    HW1 5007   0.572   1.714   0.138 -0.4910 -0.3792 -1.1199
 1588SOL    HW2 5008   0.530   1.598   0.051 -1.3201 -0.9916  0.0757
 1589SOL     OW 5009   1.285   4.158   0.156  0.0436  0.6744  0.3125
 1589SOL    HW1 5010   1.208   4.152   0.214  0.2869 -0.2489  0.5564
 1589SOL    HW2 5011   1.282   4.077   0.104 -1.1504  2.2427 -2.2576
 1590SOL     OW 5012   3.695   4.276   1.419  0.3673  0.3483 -0.6228
 1590SOL    HW1 5013   3.673   4.183   1.423  3.4220 -0.4641 -0.5358
 1590SOL    HW2 5014   3.722   4.298   1.508 -0.7018  1.4766 -0.5465
 1591SOL     OW 5015   2.680   2.574   2.366  0.3260 -0.3184  0.3786
 1591SOL    HW1 5016   2.585   2.587   2.366  0.5981  2.0349 -0.3382
 1591SOL    HW2 5017   2.702   2.559   2.274  0.8801  1.4379  0.1935
 1592SOL     OW 5018   1.517   2.382   2.300 -0.4844 -0.3879 -0.5463
 1592SOL    HW1 5019   1.441   2.333   2.333  0.5742 -1.2969  0.6440
 1592SOL    HW2 5020   1.498   2.396   2.207 -1.7594 -1.2494 -0.4466
 1593SOL     OW 5021  -0.001   1.897   0.324  0.9787  0.4216  0.1026
 1593SOL    HW1 5022   0.036   1.985   0.319  0.8762  0.4609  0.0529
 1593SOL    HW2 5023   0.036   1.851   0.249  1.6950  0.1749  0.5862
 1594SOL     OW 5024   0.428   2.534   2.996 -0.4840  0.4836  0.2581
 1594SOL    HW1 5025   0.467   2.545   3.082  0.0441  0.3718  0.0377
 1594SOL    HW2 5026   0.336   2.558   3.007  0.1224  3.0410  0.2732
 1595SOL     OW 5027   0.037   1.493   0.051  0.6051 -0.3689 -0.1825
 1595SOL    HW1 5028   0.054   1.411   0.096  1.3303 -0.1636 -0.0593
 1595SOL    HW2 5029   0.010   1.468  -0.037 -0.8039 -0.7735  0.3460
 1596SOL     OW 5030   1.669   1.930   0.769 -0.4774 -0.6443  0.3563
 1596SOL    HW1 5031   1.633   1.993   0.832 -1.6475 -0.6014 -0.3399
 1596SOL    HW2 5032   1.643   1.964   0.683  2.6008  0.2692 -0.3362
 1597SOL     OW 5033   0.463   3.420   1.550 -0.2967  0.1176  0.4750
 1597SOL    HW1 5034   0.409   3.346   1.578 -1.0965  0.5415  0.0743
 1597SOL    HW2 5035   0.510   3.387   1.473 -0.3983 -0.0761  0.4946
 1598SOL     OW 5036   2.396   3.288   2.590  0.4534  0.4010 -0.2090
 1598SOL    HW1 5037   2.301   3.285   2.592  0.4549 -0.1339  2.2380
 1598SOL    HW2 5038   2.417   3.380   2.576 -0.3243  0.2500 -3.0740
 1599SOL     OW 5039   2.427   1.603   2.500  0.0312  0.2474  0.6477
 1599SOL    HW1 5040   2.347   1.642   2.536 -0.7735 -0.5371 -0.2564
 1599SOL    HW2 5041   2.409   1.593   2.406  2.0161  2.1059 -0.0296
 1600SOL     OW 5042   3.218   0.137   1.905 -0.2358 -0.6026  0.5048
 1600SOL    HW1 5043   3.203   0.209   1.844  2.4335 -0.4968 -0.1242
 1600SOL    HW2 5044   3.187   0.059   1.859 -0.4769 -0.2132  0.0105
 1601SOL     OW 5045   2.870   3.449   2.325  0.1361 -0.2300 -0.7275
 1601SOL    HW1 5046   2.947   3.472   2.378  0.2437 -1.3659 -0.3584
 1601SOL    HW2 5047   2.796   3.470   2.381  0.2391 -0.9489 -0.3023
 1602SOL     OW 5048   2.211   1.657   2.900 -0.3522 -0.5556  0.1703
 1602SOL    HW1 5049   2.206   1.564   2.924 -1.7835 -0.0071  2.2104
 1602SOL    HW2 5050   2.196   1.657   2.805  0.5964 -2.4626 -0.0286
 1603SOL     OW 5051   1.034   3.302   2.888 -0.5411 -0.2583  0.0189
 1603SOL    HW1 5052   1.030   3.262   2.975 -0.5998 -0.1256  0.0778
 1603SOL    HW2 5053   1.000   3.391   2.901 -0.3350 -0.1626 -0.0937
 1604SOL     OW 5054   2.456   2.954   0.402  0.0019  0.3845 -0.7346
 1604SOL    HW1 5055   2.395   2.990   0.466 -0.2883 -0.5366 -0.4792
 1604SOL    HW2 5056   2.532   3.012   0.406  0.3075 -0.0709  1.0010
 1605SOL     OW 5057   2.006   3.453   0.312 -0.2824 -0.0969 -0.1633
 1605SOL    HW1 5058   2.076   3.392   0.288 -0.2777 -0.5684  0.9545
 1605SOL    HW2 5059   1.925   3.402   0.301 -0.3451 -0.0137 -0.0884
 1606SOL     OW 5060   2.647   4.054   2.055 -0.0548 -0.7684  0.0919
 1606SOL    HW1 5061   2.635   4.104   2.135 -1.1476 -1.3322  0.3027
 1606SOL    HW2 5062   2.560   4.051   2.015  0.6796  0.5156 -1.7563
 1607SOL     OW 5063   2.605   4.027   2.615 -0.3337  0.3106 -0.0854
 1607SOL    HW1 5064   2.675   3.996   2.673  1.4726  1.6169 -1.4721
 1607SOL    HW2 5065   2.563   4.097   2.665  0.1691  0.3659  0.2786
 1608SOL     OW 5066   2.512   3.897   1.644 -0.3374 -0.4882 -0.0211
 1608SOL    HW1 5067   2.588   3.944   1.678 -0.4490 -0.0801 -0.3117
 1608SOL    HW2 5068   2.439   3.958   1.656 -0.6253 -0.8950  0.2977
 1609SOL     OW 5069   2.915   0.669   1.843  0.1759  0.4712  0.1198
 1609SOL    HW1 5070   2.995   0.642   1.888 -0.4399 -1.4908  0.1261
 1609SOL    HW2 5071   2.850   0.679   1.913  0.1327  1.0398  0.0081
 1610SOL     OW 5072   0.111   3.982   0.064 -0.0388  0.4256 -0.1184
 1610SOL    HW1 5073   0.044   3.967  -0.002 -0.2805  1.3480 -0.0989
 1610SOL    HW2 5074   0.169   3.906   0.058 -0.0749  0.4832 -1.3592
 1611SOL     OW 5075   2.338   3.179   2.875 -0.4119  0.1361  0.1337
 1611SOL    HW1 5076   2.309   3.242   2.809  0.0615  1.2285  0.9365
 1611SOL    HW2 5077   2.430   3.163   2.855 -0.2965  0.3852  0.4711
 1612SOL     OW 5078   0.751   2.527   2.909  0.3292  0.2348 -0.4821
 1612SOL    HW1 5079   0.719   2.455   2.964  1.5738 -2.2184 -2.7470
 1612SOL    HW2 5080   0.846   2.516   2.908  0.7319  2.9485  0.3296
 1613SOL     OW 5081   2.806   2.574   3.071  0.6452  0.0301  0.1682
 1613SOL    HW1 5082   2.850   2.516   3.133  0.8854 -0.0453 -0.0690
 1613SOL    HW2 5083   2.720   2.591   3.110 -0.5717 -2.7536 -1.0039
 1614SOL     OW 5084   2.476   3.850   2.452  0.0176 -0.3297  0.0871
 1614SOL    HW1 5085   2.552   3.831   2.397  1.0597 -0.8661  1.6449
 1614SOL    HW2 5086   2.504   3.922   2.509 -0.5412 -0.6903  0.8422
 1615SOL     OW 5087   0.629   1.164   0.286 -0.1826 -0.2992  0.8202
 1615SOL    HW1 5088   0.718   1.149   0.254 -0.3633  0.3562 -0.0116
 1615SOL    HW2 5089   0.641   1.192   0.377  0.6920  2.6617 -0.0991
 1616SOL     OW 5090   0.804   0.671   1.053  0.0319 -0.0852 -0.4290
 1616SOL    HW1 5091   0.888   0.668   1.007  1.6792  1.5289  2.1483
 1616SOL    HW2 5092   0.818   0.617   1.131 -1.2881  0.2910  0.0922
 1617SOL     OW 5093   3.133   3.424   3.003 -0.1605  0.1556 -0.6467
 1617SOL    HW1 5094   3.058   3.459   2.955 -0.4220  0.4455 -0.0410
 1617SOL    HW2 5095   3.096   3.387   3.083  0.4172  1.0952  0.0797
 1618SOL     OW 5096   3.513  -0.029   2.732  0.4162 -0.1606  0.5232
 1618SOL    HW1 5097   3.555   0.002   2.651  0.9714  0.8916  1.1974
 1618SOL    HW2 5098   3.439   0.030   2.744  0.0536 -0.6162  0.5383
 1619SOL     OW 5099   0.301   0.517   2.332  0.2269 -0.7928 -0.2658
 1619SOL    HW1 5100   0.258   0.445   2.378 -0.0577 -0.6203 -0.2595
 1619SOL    HW2 5101   0.240   0.542   2.263 -0.7980  1.0016  1.1816
 1620SOL     OW 5102   0.209   3.811   0.536 -0.3791 -0.0711  0.0889
 1620SOL    HW1 5103   0.143   3.747   0.508 -0.2154 -0.6281  0.9117
 1620SOL    HW2 5104   0.286   3.790   0.484 -0.7589  0.4145 -0.6929
 1621SOL     OW 5105   0.948   2.416   1.553  0.2285 -0.0373 -0.5343
 1621SOL    HW1 5106   1.033   2.374   1.570 -0.4033 -1.1110  0.1212
 1621SOL    HW2 5107   0.887   2.343   1.547 -0.5170  0.6675 -1.9521
 1622SOL     OW 5108   2.277   4.242   1.953 -0.2112 -0.5041  0.2352
 1622SOL    HW1 5109   2.298   4.150   1.936 -0.6847 -0.5473 -0.1207
 1622SOL    HW2 5110   2.285   4.285   1.868  0.7401 -0.0670  0.5368
 1623SOL     OW 5111   2.808   4.077   2.439  0.6622 -0.2016 -0.2272
 1623SOL    HW1 5112   2.734   4.031   2.478  0.8163  0.0372  0.3509
 1623SOL    HW2 5113   2.884   4.021   2.458  1.1419  1.1059  2.0401
 1624SOL     OW 5114   3.411   3.876   2.243 -0.0354  0.4394 -0.2118
 1624SOL    HW1 5115   3.361   3.953   2.268 -0.3174  0.0414  0.4755
 1624SOL    HW2 5116   3.491   3.911   2.203 -0.6388  1.0763 -0.8734
 1625SOL     OW 5117   4.268   1.385   0.382 -0.5000  0.0264 -0.2247
 1625SOL    HW1 5118   4.331   1.427   0.440 -0.3365 -0.1737 -0.2559
 1625SOL    HW2 5119   4.313   1.308   0.349 -1.0090 -0.5134  0.3128
 1626SOL     OW 5120   3.941   0.599   2.147 -0.0809 -0.2581  0.0049
 1626SOL    HW1 5121   4.007   0.535   2.120 -1.0994 -0.7690 -1.4128
 1626SOL    HW2 5122   3.920   0.575   2.237  1.5218 -0.1881  0.4245
 1627SOL     OW 5123   2.392   3.999   1.969  0.5252  0.3155  0.1575
 1627SOL    HW1 5124   2.355   3.963   1.889  0.6249 -0.2100  0.3457
 1627SOL    HW2 5125   2.342   3.958   2.039 -0.2370  1.5219  0.3459
 1628SOL     OW 5126   3.923   0.797   2.799  0.7880 -0.5755  0.7927
 1628SOL    HW1 5127   3.924   0.793   2.703  1.8155  0.6196  0.7139
 1628SOL    HW2 5128   4.010   0.766   2.825  1.6681  1.8861  1.1121
 1629SOL     OW 5129   3.583   0.962   2.871  0.5586 -0.3795  0.3527
 1629SOL    HW1 5130   3.496   1.000   2.859  0.8283  0.7575  1.8153
 1629SOL    HW2 5131   3.621   0.962   2.783 -0.0552  1.2635  0.0599
 1630SOL     OW 5132   1.094   0.869   1.380  0.2190 -0.1411 -0.8773
 1630SOL    HW1 5133   1.144   0.842   1.457 -0.4130  0.9164 -0.0558
 1630SOL    HW2 5134   1.150   0.848   1.306  0.1386 -2.7845 -0.2688
 1631SOL     OW 5135   3.154   2.469   1.783 -0.7203  0.2035  0.4555
 1631SOL    HW1 5136   3.237   2.464   1.830 -0.7798  0.1740  0.5594
 1631SOL    HW2 5137   3.145   2.561   1.759 -1.0800  0.3829  1.2234
 1632SOL     OW 5138   2.044   2.655   0.075 -0.0459  0.2474 -0.1962
 1632SOL    HW1 5139   1.958   2.691   0.094  0.5133  1.1319  0.8065
 1632SOL    HW2 5140   2.083   2.640   0.161  1.3984  1.3883 -0.6166
 1633SOL     OW 5141   1.517   0.883   1.754 -0.1316  0.2702  0.1853
 1633SOL    HW1 5142   1.573   0.866   1.831 -0.2619  0.6353  0.3611
 1633SOL    HW2 5143   1.579   0.895   1.683  0.1081  2.3095  0.6873
 1634SOL     OW 5144   3.390   2.005   2.597  0.0392 -0.4252  0.2344
 1634SOL    HW1 5145   3.373   1.960   2.515  0.9147 -0.5609  0.1136
 1634SOL    HW2 5146   3.354   1.947   2.664 -1.0908 -0.0982 -0.0657
 1635SOL     OW 5147   4.347   2.726   2.464 -0.0564 -0.6209 -0.7306
 1635SOL    HW1 5148   4.321   2.817   2.476  0.8756 -0.6231  1.7234
 1635SOL    HW2 5149   4.301   2.699   2.384 -2.2834  1.2539 -0.1909
 1636SOL     OW 5150   1.851   1.312   0.279 -0.1735  0.8461 -0.2673
 1636SOL    HW1 5151   1.834   1.272   0.364 -0.9117 -1.0349 -1.2430
 1636SOL    HW2 5152   1.945   1.301   0.266 -0.1103  0.8446  0.1703
 1637SOL     OW 5153   2.940   0.090   1.881 -0.6934  0.3388 -0.4421
 1637SOL    HW1 5154   3.011   0.074   1.820  0.8636  0.3197  1.2866
 1637SOL    HW2 5155   2.909   0.178   1.860 -0.0580  0.4071 -1.1082
 1638SOL     OW 5156   1.182   1.273   0.151  0.0039  0.0771  0.5959
 1638SOL    HW1 5157   1.148   1.234   0.232 -0.3411 -0.1162  0.3621
 1638SOL    HW2 5158   1.111   1.260   0.087  0.3289  0.1021  0.2277
 1639SOL     OW 5159   0.997   1.119   2.970 -0.2782 -0.2670  0.4400
 1639SOL    HW1 5160   1.062   1.190   2.973  0.7881 -1.2274  0.9292
 1639SOL    HW2 5161   1.046   1.043   2.937 -1.5611 -0.6318 -0.7093
 1640SOL     OW 5162   1.241   1.865   0.263 -0.3657 -0.5004  0.3454
 1640SOL    HW1 5163   1.198   1.947   0.285 -2.2905 -1.4789  0.5037
 1640SOL    HW2 5164   1.258   1.823   0.348 -0.7868 -0.9108  0.2351
 1641SOL     OW 5165   4.101   1.304   1.151 -0.1485 -0.0770  0.4513
 1641SOL    HW1 5166   4.177   1.246   1.155  0.9337  1.3582  3.2424
 1641SOL    HW2 5167   4.028   1.247   1.128  1.6282 -1.5818 -1.8480
 1642SOL     OW 5168   2.651   0.264   2.924  0.5444  0.0266 -0.6020
 1642SOL    HW1 5169   2.628   0.282   3.015 -0.1270  0.5668 -0.8786
 1642SOL    HW2 5170   2.571   0.280   2.875  0.8600 -0.4178 -1.2744
 1643SOL     OW 5171   0.833   3.699   1.177 -0.3250  0.0631 -0.1259
 1643SOL    HW1 5172   0.779   3.704   1.255 -1.0875 -1.5831 -0.5124
 1643SOL    HW2 5173   0.904   3.640   1.200 -1.5268 -1.8917 -1.1650
 1644SOL     OW 5174   3.871   1.808   1.564  0.2514  0.2940  0.0477
 1644SOL    HW1 5175   3.859   1.751   1.488  1.3840 -0.6427  0.5425
 1644SOL    HW2 5176   3.962   1.837   1.559 -0.1795  1.7207  0.0571
 1645SOL     OW 5177   1.685   0.895   1.512  0.1370 -0.1111 -0.4746
 1645SOL    HW1 5178   1.690   0.881   1.418 -2.0288 -0.4578 -0.5784
 1645SOL    HW2 5179   1.683   0.808   1.550  2.6627 -0.0111  0.0868
 1646SOL     OW 5180   1.606   0.959   3.028  0.3403 -0.8694  0.0030
 1646SOL    HW1 5181   1.689   0.944   2.984  1.3171  1.5300  0.8912
 1646SOL    HW2 5182   1.604   0.893   3.098  2.3326  0.1002  1.0354
 1647SOL     OW 5183   0.034   1.564   2.049  0.0116  0.0484 -0.0338
 1647SOL    HW1 5184   0.056   1.482   2.004 -0.1594 -0.0558  0.0694
 1647SOL    HW2 5185   0.057   1.548   2.140 -1.9942 -0.6614  0.3949
 1648SOL     OW 5186   2.941   0.972   0.755 -0.2794  0.3813  0.1560
 1648SOL    HW1 5187   3.027   0.985   0.795  0.4618 -0.5042 -1.0698
 1648SOL    HW2 5188   2.886   0.940   0.826  0.7895 -0.4024  0.6626
 1649SOL     OW 5189   3.017   2.728   2.981  0.0608 -0.1901 -0.2039
 1649SOL    HW1 5190   3.071   2.657   2.945 -0.0535 -0.3405 -0.0796
 1649SOL    HW2 5191   2.939   2.684   3.014  0.2182 -0.0747  0.3468
 1650SOL     OW 5192   3.265   4.198   0.792  0.0932 -0.1171  0.2232
 1650SOL    HW1 5193   3.294   4.237   0.710  2.0666  1.7125  1.6822
 1650SOL    HW2 5194   3.301   4.109   0.791  2.0431  0.6364  0.0366
 1651SOL     OW 5195   0.632   4.212   2.594  0.3504  0.6166  0.2118
 1651SOL    HW1 5196   0.576   4.276   2.637 -2.3537 -1.1396 -0.4430
 1651SOL    HW2 5197   0.713   4.212   2.647 -0.0542  3.4872  1.0089
 1652SOL     OW 5198   3.624   0.123   1.965 -0.0210 -0.2749 -0.3302
 1652SOL    HW1 5199   3.710   0.161   1.950  0.6056 -0.7387  1.7783
 1652SOL    HW2 5200   3.634   0.071   2.045 -2.7924  1.5838  1.4192
 1653SOL     OW 5201   2.010   2.974   2.422 -0.9871 -0.1849  0.6898
 1653SOL    HW1 5202   1.959   3.033   2.367 -0.7114 -0.7369 -0.1750
 1653SOL    HW2 5203   2.061   2.921   2.361  2.1052  1.5971  1.5218
 1654SOL     OW 5204   2.319   3.568   2.174  1.0844  0.1040 -0.5760
 1654SOL    HW1 5205   2.264   3.496   2.141  1.2008 -0.7201  0.9628
 1654SOL    HW2 5206   2.308   3.565   2.269  1.2664  2.0084 -0.4668
 1655SOL     OW 5207   1.480   0.067   3.017  0.2324 -0.0735  0.3628
 1655SOL    HW1 5208   1.484   0.141   2.956 -1.2291 -0.2484  0.0197
 1655SOL    HW2 5209   1.417   0.007   2.978 -0.4022 -0.4001  1.8308
 1656SOL     OW 5210   3.398   2.407   3.094 -0.0407  0.1297 -0.6071
 1656SOL    HW1 5211   3.388   2.460   3.016 -1.3230 -1.1816 -1.3873
 1656SOL    HW2 5212   3.402   2.317   3.062 -0.5351 -0.4353  0.8257
 1657SOL     OW 5213   4.359   3.617   2.733  0.4366  0.0381  0.0759
 1657SOL    HW1 5214   4.424   3.666   2.681  0.5805 -0.2263  0.0058
 1657SOL    HW2 5215   4.277   3.663   2.718  0.6078  0.3778  0.1642
 1658SOL     OW 5216   3.684   2.455   0.332 -0.2937  0.1127 -0.4685
 1658SOL    HW1 5217   3.778   2.459   0.350  0.1474  0.7007 -2.5790
 1658SOL    HW2 5218   3.670   2.367   0.296 -0.5703  0.0106 -0.1190
 1659SOL     OW 5219   1.606   2.953   0.319 -0.2619 -0.2990  0.1227
 1659SOL    HW1 5220   1.699   2.971   0.304  0.1049 -0.4094  1.9260
 1659SOL    HW2 5221   1.601   2.857   0.324 -0.4341 -0.2866  0.1971
 1660SOL     OW 5222   3.118   0.502   0.999  0.4530  0.1309 -0.2156
 1660SOL    HW1 5223   3.106   0.537   1.087 -0.6643  0.3637 -0.4473
 1660SOL    HW2 5224   3.164   0.571   0.952 -0.1559  0.5765 -0.1746
 1661SOL     OW 5225   4.402   0.895   1.600 -0.5830  0.2765  0.1149
 1661SOL    HW1 5226   4.429   0.948   1.675 -3.1161  1.2468  0.4376
 1661SOL    HW2 5227   4.322   0.852   1.628  0.0877 -1.8699 -1.0122
 1662SOL     OW 5228   1.137   0.990   0.069  0.1481  0.1118 -0.8093
 1662SOL    HW1 5229   1.174   1.045   0.138 -0.5797  0.6171 -0.8183
 1662SOL    HW2 5230   1.176   0.904   0.085  1.7494  0.7288 -1.1416
 1663SOL     OW 5231   3.201   0.425   1.738 -0.0577  0.6271 -0.0547
 1663SOL    HW1 5232   3.207   0.512   1.777  0.9939  1.6548 -2.3784
 1663SOL    HW2 5233   3.291   0.405   1.710 -0.2900 -1.1970  0.3496
 1664SOL     OW 5234   0.701   0.801   0.204  0.1753  0.1641  0.4116
 1664SOL    HW1 5235   0.693   0.709   0.179  1.3422  0.3082 -0.5874
 1664SOL    HW2 5236   0.761   0.838   0.139 -0.0782  1.5695  0.9550
 1665SOL     OW 5237   3.853   0.928   0.385  0.0286  0.0164  1.0466
 1665SOL    HW1 5238   3.801   0.974   0.319  0.6100  0.3053  0.7909
 1665SOL    HW2 5239   3.938   0.970   0.383  0.2777 -0.4569  1.4725
 1666SOL     OW 5240   3.108   3.410   0.745  1.0280 -0.3869 -0.1050
 1666SOL    HW1 5241   3.059   3.491   0.759  0.0620 -0.6722 -1.5493
 1666SOL    HW2 5242   3.200   3.435   0.754  0.6829  0.4187  1.4572
 1667SOL     OW 5243   3.565   3.650   1.002 -0.2977 -0.3094  0.2738
 1667SOL    HW1 5244   3.581   3.712   0.931 -0.3127  0.5154  0.9737
 1667SOL    HW2 5245   3.608   3.688   1.078  0.1500 -1.4345  0.6050
 1668SOL     OW 5246   0.586   3.496   0.476  0.0016  0.7184  0.0171
 1668SOL    HW1 5247   0.563   3.430   0.411 -2.9044  2.0487 -0.4786
 1668SOL    HW2 5248   0.592   3.447   0.558  0.1196 -0.4633 -0.6747
 1669SOL     OW 5249   2.134   3.651   2.906  0.0445 -0.1004  0.0931
 1669SOL    HW1 5250   2.178   3.681   2.827  0.3794 -1.0394 -0.0878
 1669SOL    HW2 5251   2.041   3.661   2.887  0.1482  1.5953  0.3575
 1670SOL     OW 5252   0.768   0.739   2.588  0.1912  0.4226 -0.1196
 1670SOL    HW1 5253   0.733   0.692   2.512 -1.1148 -3.5687  2.6264
 1670SOL    HW2 5254   0.705   0.810   2.604 -1.1682 -0.5198 -1.0722
 1671SOL     OW 5255   1.214   2.932   1.739 -0.2172  0.8203  0.0933
 1671SOL    HW1 5256   1.206   2.994   1.812 -2.6342  1.5399 -0.6933
 1671SOL    HW2 5257   1.306   2.905   1.741 -0.0055  1.3967  2.9036
 1672SOL     OW 5258   0.800   1.473   2.754  0.0349 -0.3135  0.0526
 1672SOL    HW1 5259   0.715   1.478   2.798  0.3066  1.4857  0.4397
 1672SOL    HW2 5260   0.856   1.534   2.802  0.5474  1.1935 -2.2795
 1673SOL     OW 5261   0.850   3.560   1.710  0.3937  0.2861 -0.1910
 1673SOL    HW1 5262   0.765   3.536   1.745  0.8027  0.8377  1.2342
 1673SOL    HW2 5263   0.892   3.610   1.779  1.9772 -0.1800 -0.7573
 1674SOL     OW 5264   0.822   3.587   0.588  0.6127  0.2002  0.2668
 1674SOL    HW1 5265   0.734   3.564   0.561  0.3363  1.4237  0.0824
 1674SOL    HW2 5266   0.813   3.619   0.677  0.8364  0.5246  0.1762
 1675SOL     OW 5267   0.805   3.165   0.469  0.1415 -0.6793 -0.1707
 1675SOL    HW1 5268   0.835   3.074   0.473 -0.1878 -0.7761  0.0631
 1675SOL    HW2 5269   0.865   3.212   0.526  0.4343 -0.7139 -0.4445
 1676SOL     OW 5270   3.522   4.047   0.606 -0.2000 -0.1074 -0.1813
 1676SOL    HW1 5271   3.474   4.007   0.679 -1.3111 -2.1386 -1.9183
 1676SOL    HW2 5272   3.457   4.101   0.561 -0.0890 -0.5078 -0.8378
 1677SOL     OW 5273   3.987   2.855   2.761  0.3012 -0.8502 -0.1146
 1677SOL    HW1 5274   4.005   2.835   2.669 -0.9634 -0.8766 -0.3709
 1677SOL    HW2 5275   4.062   2.818   2.809  0.6872 -1.3397 -1.0776
 1678SOL     OW 5276   3.833   0.750   0.587 -0.0421  0.0143  0.3669
 1678SOL    HW1 5277   3.857   0.670   0.540 -0.4557 -0.2569  0.6045
 1678SOL    HW2 5278   3.823   0.816   0.519  0.3295 -0.1268  0.1695
 1679SOL     OW 5279   4.158   1.646   2.213 -0.1418 -0.5578  0.2304
 1679SOL    HW1 5280   4.108   1.727   2.227 -0.3856 -0.6042 -0.3228
 1679SOL    HW2 5281   4.163   1.638   2.117  0.2517 -0.9696  0.2839
 1680SOL     OW 5282   0.231   1.027   0.485  0.3674  0.5688  0.6366
 1680SOL    HW1 5283   0.178   0.948   0.498 -0.7955  1.0652 -0.7747
 1680SOL    HW2 5284   0.298   1.000   0.423  0.0110  0.6559  0.2064
 1681SOL     OW 5285   4.031   2.643   0.161 -0.5643  0.2303  0.4253
 1681SOL    HW1 5286   3.969   2.615   0.094 -0.1271 -0.3624  0.2621
 1681SOL    HW2 5287   4.062   2.728   0.131 -0.5302  0.0627 -0.0097
 1682SOL     OW 5288  -0.015   2.214   2.692 -0.4933  0.5897  0.5309
 1682SOL    HW1 5289   0.077   2.207   2.665 -1.3249  1.1428 -3.0649
 1682SOL    HW2 5290  -0.032   2.308   2.696 -1.2230  0.5101 -0.3363
 1683SOL     OW 5291   3.301   1.351   0.812  0.0023 -0.9498  0.3333
 1683SOL    HW1 5292   3.222   1.372   0.861 -0.7480  0.1932 -1.2746
 1683SOL    HW2 5293   3.363   1.419   0.837 -0.6189  0.0645 -0.7833
 1684SOL     OW 5294   0.255   0.600   1.204 -0.3551 -0.0709  0.3441
 1684SOL    HW1 5295   0.347   0.602   1.177 -0.3786 -0.1719  0.2541
 1684SOL    HW2 5296   0.227   0.691   1.198  0.1325  0.1949  1.7643
 1685SOL     OW 5297   1.085   1.182   1.569 -0.4869  0.4935 -0.0294
 1685SOL    HW1 5298   1.034   1.102   1.558 -1.3924  1.0003  0.3911
 1685SOL    HW2 5299   1.121   1.200   1.482  2.0104 -1.8348  0.3654
 1686SOL     OW 5300   3.918   0.392   1.014 -0.0988 -0.5656 -0.1649
 1686SOL    HW1 5301   3.934   0.458   0.946  0.4284 -1.0118 -0.4863
 1686SOL    HW2 5302   3.995   0.397   1.071 -0.9350  0.3894  0.8938
 1687SOL     OW 5303   2.488   3.180   2.182  0.0660  0.3296 -0.1341
 1687SOL    HW1 5304   2.394   3.172   2.200 -0.4331  0.9477 -2.1996
 1687SOL    HW2 5305   2.512   3.096   2.142  0.7791 -0.3975  1.7012
 1688SOL     OW 5306   1.088   4.326   2.553 -0.3541 -0.0283 -0.1602
 1688SOL    HW1 5307   1.138   4.246   2.569 -2.3992 -1.1947  0.7265
 1688SOL    HW2 5308   1.150   4.385   2.510  0.7974 -2.6328 -2.3277
 1689SOL     OW 5309   3.775   4.026   1.459  0.4849  0.1643 -0.2950
 1689SOL    HW1 5310   3.858   4.055   1.497 -0.2941  1.9027  0.1467
 1689SOL    HW2 5311   3.721   4.004   1.535 -0.3491  1.5827 -0.4632
 1690SOL     OW 5312   0.995   3.637   2.631  0.0866  0.2922 -0.4313
 1690SOL    HW1 5313   0.988   3.611   2.723 -1.1398  1.5388 -0.1369
 1690SOL    HW2 5314   1.004   3.554   2.583  1.0228 -0.3501  0.8197
 1691SOL     OW 5315   0.455   1.208   1.856  0.4613 -0.4809 -0.4410
 1691SOL    HW1 5316   0.533   1.184   1.906  0.0420 -0.1036  0.4226
 1691SOL    HW2 5317   0.386   1.216   1.922 -0.2047 -0.3739 -1.1364
 1692SOL     OW 5318   1.097   0.507   0.886  0.6477 -0.0235  0.4313
 1692SOL    HW1 5319   1.123   0.538   0.799 -0.0693 -2.4405 -0.7393
 1692SOL    HW2 5320   1.126   0.416   0.888  2.0071  0.3465  3.3746
 1693SOL     OW 5321   3.207   1.883   3.105 -0.3715  0.1498  0.2221
 1693SOL    HW1 5322   3.294   1.862   3.070 -0.9144 -2.6886  0.3161
 1693SOL    HW2 5323   3.156   1.908   3.028  0.0681  0.0721 -0.1030
 1694SOL     OW 5324   3.437   0.687   1.391  0.3955 -0.3455  0.1842
 1694SOL    HW1 5325   3.388   0.615   1.430  0.1486  0.0171  0.5549
 1694SOL    HW2 5326   3.370   0.752   1.370  0.5881 -0.3335 -0.3870
 1695SOL     OW 5327   3.263   0.503   1.434  0.5531  0.7141 -0.2836
 1695SOL    HW1 5328   3.171   0.527   1.429  0.5154  0.4242 -1.2457
 1695SOL    HW2 5329   3.263   0.408   1.441  0.7518  0.8127  1.4190
 1696SOL     OW 5330   2.390   3.718   2.767  0.0385  0.2094 -0.0508
 1696SOL    HW1 5331   2.388   3.765   2.851  2.7914  1.3618 -0.5116
 1696SOL    HW2 5332   2.482   3.695   2.755 -0.4957 -1.0678 -2.1754
 1697SOL     OW 5333   3.884   0.997   3.007 -0.4100 -0.5976 -0.6139
 1697SOL    HW1 5334   3.888   1.087   2.975 -1.3263 -0.3067  0.0401
 1697SOL    HW2 5335   3.869   0.944   2.930 -1.4766 -0.0233 -0.8119
 1698SOL     OW 5336   2.777   1.244   1.595 -0.2505 -0.2463  0.1241
 1698SOL    HW1 5337   2.869   1.270   1.589 -0.4041 -0.0456 -2.0244
 1698SOL    HW2 5338   2.753   1.262   1.686  2.0780 -1.1903  0.9988
 1699SOL     OW 5339   0.960   3.586   2.891 -0.6215 -0.3613 -0.6051
 1699SOL    HW1 5340   1.029   3.598   2.956  0.9298 -0.1329 -2.2234
 1699SOL    HW2 5341   0.900   3.659   2.906 -1.7137 -1.6533  2.1416
 1700SOL     OW 5342   3.122   1.756   1.529  0.1391  0.0122  0.2562
 1700SOL    HW1 5343   3.095   1.847   1.538 -1.2862 -0.3062 -0.3848
 1700SOL    HW2 5344   3.167   1.735   1.610  0.0701  1.1590  0.5954
 1701SOL     OW 5345   3.288   2.697   0.178 -0.0302  0.5450 -0.0845
 1701SOL    HW1 5346   3.246   2.773   0.220  0.2215  0.3646  0.5003
 1701SOL    HW2 5347   3.362   2.676   0.235 -0.5197 -0.5980  0.1633
 1702SOL     OW 5348   0.794   2.200   1.662 -0.5646 -0.5137  0.2751
 1702SOL    HW1 5349   0.810   2.215   1.755 -0.2033 -1.0017  0.2890
 1702SOL    HW2 5350   0.864   2.141   1.634  0.1149  0.6701 -0.6097
 1703SOL     OW 5351   2.576   2.970   2.745 -0.1149  0.0173  0.1738
 1703SOL    HW1 5352   2.488   2.936   2.731 -0.3114  0.2826  0.7595
 1703SOL    HW2 5353   2.602   3.003   2.659 -0.1319 -1.0970 -0.2760
 1704SOL     OW 5354   3.594   2.426   1.101  0.3479 -0.1050 -0.3034
 1704SOL    HW1 5355   3.520   2.415   1.161  0.6024  1.7733  0.4119
 1704SOL    HW2 5356   3.594   2.519   1.080  0.3028 -0.6649 -3.2354
 1705SOL     OW 5357   4.248   0.338   2.408  0.1245  0.1347  0.9360
 1705SOL    HW1 5358   4.278   0.332   2.499 -0.6521 -3.0261  1.0937
 1705SOL    HW2 5359   4.319   0.299   2.357 -0.3610 -0.0834  0.4221
 1706SOL     OW 5360   0.666   1.191   0.561 -0.3406  0.4132  0.0721
 1706SOL    HW1 5361   0.708   1.276   0.573 -0.0736  0.2614  0.2038
 1706SOL    HW2 5362   0.591   1.192   0.621 -0.7373  0.8199 -0.4174
 1707SOL     OW 5363   3.974   1.369   1.399  0.2723  1.1197 -0.7284
 1707SOL    HW1 5364   4.027   1.358   1.320  3.2198  0.3306  1.1868
 1707SOL    HW2 5365   4.017   1.440   1.446 -0.2036  0.2790  1.0323
 1708SOL     OW 5366   0.397   3.837   2.622  0.8765  0.4366  0.6809
 1708SOL    HW1 5367   0.440   3.807   2.701 -0.3874  0.1362  1.2746
 1708SOL    HW2 5368   0.339   3.908   2.651  0.2215  0.1603  0.0811
 1709SOL     OW 5369   0.581   3.993   2.112  0.1078 -0.2014 -0.6680
 1709SOL    HW1 5370   0.493   3.957   2.103 -1.6900  3.8610 -1.7043
 1709SOL    HW2 5371   0.590   4.011   2.205  0.5550 -2.0613 -0.3227
 1710SOL     OW 5372   0.301   4.209   0.859 -0.2064  0.4466  0.2419
 1710SOL    HW1 5373   0.372   4.266   0.886 -0.3471  1.7803 -1.9929
 1710SOL    HW2 5374   0.226   4.238   0.911  0.0787  1.3181  0.1829
 1711SOL     OW 5375   3.296   1.535   3.005  0.0372 -0.4063 -0.6332
 1711SOL    HW1 5376   3.351   1.465   3.040  2.3478  1.7489  0.3623
 1711SOL    HW2 5377   3.232   1.552   3.074  1.9381  1.0027  0.8796
 1712SOL     OW 5378   4.137   1.398   3.050 -0.2781  0.3047 -0.1812
 1712SOL    HW1 5379   4.045   1.407   3.077 -0.0955  0.1371  0.5253
 1712SOL    HW2 5380   4.140   1.315   3.002 -0.4468  0.1705  0.0356
 1713SOL     OW 5381   3.569   2.755   3.087 -0.8525  0.6369  0.1589
 1713SOL    HW1 5382   3.595   2.685   3.148 -0.1438  0.5262 -0.2488
 1713SOL    HW2 5383   3.635   2.750   3.017 -0.7428  1.7772  0.1717
 1714SOL     OW 5384   0.613   2.524   0.447  0.1533  0.5074 -0.3705
 1714SOL    HW1 5385   0.695   2.547   0.492  0.6733  0.8605 -1.4637
 1714SOL    HW2 5386   0.635   2.528   0.354 -1.5151  2.1911 -0.7510
 1715SOL     OW 5387   3.264   1.862   2.385  0.4651 -0.1102 -0.0382
 1715SOL    HW1 5388   3.267   1.922   2.310 -1.1284 -0.2292 -0.2392
 1715SOL    HW2 5389   3.296   1.779   2.349  0.0909 -0.0626 -0.5025
 1716SOL     OW 5390   3.553   0.311   0.940  0.3148 -0.0044 -0.4726
 1716SOL    HW1 5391   3.514   0.237   0.988 -2.4880  1.4545 -0.2940
 1716SOL    HW2 5392   3.612   0.351   1.003 -0.4384 -0.3343  0.4681
 1717SOL     OW 5393   4.270   0.142   1.275 -0.6764 -0.1594 -0.6998
 1717SOL    HW1 5394   4.348   0.143   1.330 -0.4265 -2.2915 -0.9049
 1717SOL    HW2 5395   4.301   0.165   1.187 -0.2482 -0.9525 -0.7688
 1718SOL     OW 5396   3.870   1.156   2.539 -0.0046 -0.3224  0.3908
 1718SOL    HW1 5397   3.898   1.235   2.585 -1.2851  0.2117  0.2728
 1718SOL    HW2 5398   3.948   1.129   2.489  0.8795  0.0393  1.5408
 1719SOL     OW 5399   2.147   0.352   2.879 -0.0260 -0.2952  0.7622
 1719SOL    HW1 5400   2.166   0.422   2.942 -0.8145  1.1719 -0.5613
 1719SOL    HW2 5401   2.063   0.317   2.908 -0.1313  0.0140  0.8395
 1720SOL     OW 5402   3.598   0.696   0.835  0.1014 -0.2977 -0.2272
 1720SOL    HW1 5403   3.653   0.669   0.762 -1.0326  1.1569 -1.6898
 1720SOL    HW2 5404   3.653   0.754   0.887  0.3724  0.0672 -0.9148
 1721SOL     OW 5405   0.779   1.981   0.817  0.9950  0.3517  0.0374
 1721SOL    HW1 5406   0.779   2.024   0.903  0.6299  1.4642 -0.4901
 1721SOL    HW2 5407   0.861   2.007   0.777  1.3140 -0.4366  0.1687
 1722SOL     OW 5408   0.560   0.984   2.681 -0.4122 -0.5359  0.2584
 1722SOL    HW1 5409   0.629   1.049   2.673 -1.6134  0.6099 -1.6152
 1722SOL    HW2 5410   0.497   1.022   2.743 -0.2492 -0.7666  0.5723
 1723SOL     OW 5411   2.719   3.506   0.849 -0.2540  0.0817 -1.2654
 1723SOL    HW1 5412   2.806   3.541   0.870 -0.5089 -0.6662  1.4042
 1723SOL    HW2 5413   2.712   3.515   0.754  2.3253  1.0995 -1.4430
 1724SOL     OW 5414   1.367   2.945   2.416  0.4840 -0.1547 -0.2219
 1724SOL    HW1 5415   1.283   2.983   2.391  0.5182 -0.6002 -1.0484
 1724SOL    HW2 5416   1.367   2.947   2.512  0.2587  1.4059 -0.2351
 1725SOL     OW 5417   3.187   0.792   1.000  0.3630 -0.3827 -0.0655
 1725SOL    HW1 5418   3.187   0.825   0.910 -0.0412  2.1736  0.7872
 1725SOL    HW2 5419   3.276   0.760   1.014  0.9244  0.7407 -0.8778
 1726SOL     OW 5420   0.201   4.087   0.450 -0.5190  0.0484 -0.3744
 1726SOL    HW1 5421   0.176   3.995   0.450  1.1047 -0.4306  0.9465
 1726SOL    HW2 5422   0.248   4.100   0.368  1.9891 -1.1565  0.7733
 1727SOL     OW 5423   1.246   0.129   1.677 -0.0648 -0.2905  0.2277
 1727SOL    HW1 5424   1.232   0.080   1.758 -0.1893 -1.2843 -0.3727
 1727SOL    HW2 5425   1.160   0.162   1.653 -0.7065 -2.7133 -1.1577
 1728SOL     OW 5426   1.604   2.428   1.060 -0.0737  0.0871  0.0034
 1728SOL    HW1 5427   1.594   2.407   0.967 -1.8913 -0.2536  0.2352
 1728SOL    HW2 5428   1.638   2.518   1.060  3.2476 -1.0368 -0.9625
 1729SOL     OW 5429   2.525   0.300   0.628 -0.1283  0.2834  0.1646
 1729SOL    HW1 5430   2.589   0.229   0.622  0.1806  0.4726  1.1289
 1729SOL    HW2 5431   2.558   0.368   0.569 -0.3853 -0.3251 -0.7016
 1730SOL     OW 5432   3.306   2.410   0.468  0.4379  0.4420 -0.5629
 1730SOL    HW1 5433   3.379   2.469   0.449  0.8875 -0.7117 -2.7354
 1730SOL    HW2 5434   3.338   2.355   0.539  1.6863  0.0469 -1.3875
 1731SOL     OW 5435   1.970   1.978   1.799 -0.1700  0.0904 -0.5358
 1731SOL    HW1 5436   1.929   2.061   1.823 -0.3004 -0.1200 -0.0045
 1731SOL    HW2 5437   1.920   1.946   1.724  0.3760  0.8700 -1.2514
 1732SOL     OW 5438   1.541   2.257   0.402 -0.1719  0.6150 -0.1181
 1732SOL    HW1 5439   1.545   2.314   0.325 -0.3552 -0.4457 -0.9436
 1732SOL    HW2 5440   1.569   2.172   0.369  0.5012  0.3137  1.1799
 1733SOL     OW 5441   2.445   0.231   0.877  1.0235 -0.2976  0.3387
 1733SOL    HW1 5442   2.442   0.311   0.930 -2.5410  0.6328 -0.9806
 1733SOL    HW2 5443   2.474   0.260   0.791 -0.2625 -0.3690 -0.1395
 1734SOL     OW 5444   3.030   1.318   0.566  0.3042  0.2014 -0.6936
 1734SOL    HW1 5445   2.995   1.354   0.485  1.7394  1.2805 -0.8750
 1734SOL    HW2 5446   3.091   1.250   0.538  1.0309  0.7784 -0.5659
 1735SOL     OW 5447   4.120   2.874   0.027 -0.0214 -0.3258  0.1994
 1735SOL    HW1 5448   4.092   2.963   0.046  2.4668  0.4443  0.6457
 1735SOL    HW2 5449   4.108   2.865  -0.068  0.5126  0.8260  0.0013
 1736SOL     OW 5450   4.215   0.429   1.637  0.9936  0.3588 -0.0273
 1736SOL    HW1 5451   4.223   0.523   1.655  1.1383  0.3192  0.1143
 1736SOL    HW2 5452   4.286   0.411   1.576  2.7215 -0.2044  2.0356
 1737SOL     OW 5453   1.246   0.169   1.336  0.7101 -0.0566  0.3897
 1737SOL    HW1 5454   1.188   0.237   1.369  1.7956  1.2695 -0.3196
 1737SOL    HW2 5455   1.198   0.087   1.349 -0.4199  0.7877  1.7187
 1738SOL     OW 5456   0.568   1.195   1.621  0.2551  0.0877  0.4054
 1738SOL    HW1 5457   0.661   1.172   1.632  0.9139  2.6073  0.6729
 1738SOL    HW2 5458   0.528   1.174   1.705  0.2501 -2.1232 -0.0739
 1739SOL     OW 5459   1.758   2.678   1.026  0.1892  0.8922  0.0967
 1739SOL    HW1 5460   1.835   2.654   1.076 -2.0250 -0.2194  3.3278
 1739SOL    HW2 5461   1.771   2.639   0.940  1.3933 -3.1328  1.8631
 1740SOL     OW 5462   3.679   1.362   2.586  0.2098 -0.5978 -0.4653
 1740SOL    HW1 5463   3.630   1.402   2.514  1.4490 -1.4192 -1.8160
 1740SOL    HW2 5464   3.731   1.294   2.545  1.3569 -0.7518  1.1509
 1741SOL     OW 5465   0.199   2.705   0.508  0.2737 -0.3013  0.5070
 1741SOL    HW1 5466   0.135   2.679   0.574 -0.4193  0.9314  0.3379
 1741SOL    HW2 5467   0.282   2.710   0.556  0.1990 -1.5631  0.7964
 1742SOL     OW 5468   3.478   1.862   2.998  0.0757  0.3422  0.5994
 1742SOL    HW1 5469   3.445   1.828   2.915  0.0781  0.5203  0.5263
 1742SOL    HW2 5470   3.572   1.870   2.985 -0.0814  1.6721  0.1507
 1743SOL     OW 5471   3.723   4.350   0.709  0.1251  0.2024 -0.1389
 1743SOL    HW1 5472   3.737   4.304   0.791 -0.0980  0.4908  0.0633
 1743SOL    HW2 5473   3.718   4.281   0.643 -0.1413 -0.0533  0.1507
 1744SOL     OW 5474   3.786   0.039   2.588  0.4597 -0.3508  0.6280
 1744SOL    HW1 5475   3.807   0.048   2.681  1.8268  0.5088  0.2647
 1744SOL    HW2 5476   3.810  -0.051   2.566 -0.1284 -0.6444  1.1506
 1745SOL     OW 5477   0.185   2.261   1.758  0.5046 -0.1947 -0.3099
 1745SOL    HW1 5478   0.205   2.248   1.666  2.1565 -0.8692  0.0929
 1745SOL    HW2 5479   0.269   2.285   1.797 -0.2729  0.5987  0.9263
 1746SOL     OW 5480   0.033   1.638   1.437  0.2447 -0.3592  0.1829
 1746SOL    HW1 5481   0.056   1.731   1.432  1.2163 -0.5352  1.1067
 1746SOL    HW2 5482   0.056   1.612   1.526 -4.0550 -0.4688  1.4957
 1747SOL     OW 5483   0.150   0.142  -0.017  0.1385 -0.5806 -0.4131
 1747SOL    HW1 5484   0.210   0.191   0.039 -1.8274  0.6628  0.7024
 1747SOL    HW2 5485   0.091   0.098   0.043 -0.6881 -0.9803 -1.4834
 1748SOL     OW 5486   2.557   1.060   2.908  0.1594  0.7703  0.6140
 1748SOL    HW1 5487   2.468   1.078   2.877  0.3066  2.3020  1.0125
 1748SOL    HW2 5488   2.564   0.964   2.908 -1.1382  0.6571 -0.3866
 1749SOL     OW 5489   1.534   2.864   1.004 -0.6172 -0.4084  0.5203
 1749SOL    HW1 5490   1.611   2.821   1.041 -1.3594 -0.8821  1.5691
 1749SOL    HW2 5491   1.559   2.886   0.914  0.2448 -1.8483  0.3844
 1750SOL     OW 5492   4.131   1.875   1.558 -0.8240  0.2707  0.3642
 1750SOL    HW1 5493   4.094   1.932   1.491 -1.7249  0.0978  0.7068
 1750SOL    HW2 5494   4.215   1.916   1.581 -1.1494  1.0846  0.1274
 1751SOL     OW 5495   3.182   2.971   0.171 -0.3573  0.5534 -0.1580
 1751SOL    HW1 5496   3.214   3.061   0.171 -2.2110  1.2614  0.1945
 1751SOL    HW2 5497   3.164   2.952   0.079 -0.0695  0.5671 -0.2194
 1752SOL     OW 5498   1.185   3.100   0.406  0.3929  0.6646  0.3768
 1752SOL    HW1 5499   1.114   3.061   0.355 -0.5818  0.7296  1.6417
 1752SOL    HW2 5500   1.236   3.149   0.342 -1.6389  1.9891 -0.3444
 1753SOL     OW 5501   0.027   1.122   3.032 -0.4790 -0.5496 -0.2329
 1753SOL    HW1 5502   0.061   1.033   3.024  0.2639 -0.4254  1.2738
 1753SOL    HW2 5503  -0.062   1.118   2.995 -0.6607 -2.0419  0.3353
 1754SOL     OW 5504   0.158   0.186   1.244 -0.0610  0.0142 -0.0700
 1754SOL    HW1 5505   0.160   0.271   1.200  0.5013 -0.0952 -0.2626
 1754SOL    HW2 5506   0.154   0.122   1.173 -1.3411 -0.1124  0.0823
 1755SOL     OW 5507   1.070   1.192   1.295  0.1541  0.0660  0.4298
 1755SOL    HW1 5508   0.975   1.194   1.280  0.0846  0.8273  0.8909
 1755SOL    HW2 5509   1.099   1.111   1.254 -1.2370 -2.1988  3.5298
 1756SOL     OW 5510   4.121   4.200   2.036 -0.0537 -0.3250  0.9459
 1756SOL    HW1 5511   4.154   4.189   1.947  0.5468  0.0392  1.1116
 1756SOL    HW2 5512   4.074   4.284   2.033  0.9397  0.2644  1.2294
 1757SOL     OW 5513   1.950   3.570   0.808 -0.5360 -0.6794 -0.0326
 1757SOL    HW1 5514   2.031   3.582   0.858  0.2570 -4.8038  0.0267
 1757SOL    HW2 5515   1.979   3.530   0.726 -2.4008 -1.1202 -0.5147
 1758SOL     OW 5516   2.319   1.735   0.501  0.6754 -0.0529  0.2323
 1758SOL    HW1 5517   2.320   1.640   0.490 -1.5399  0.0715 -2.0192
 1758SOL    HW2 5518   2.412   1.760   0.503  1.3068 -2.1632 -0.3233
 1759SOL     OW 5519   3.790   1.633   0.532  0.1605 -0.5508 -0.4937
 1759SOL    HW1 5520   3.767   1.647   0.623  0.6869 -3.4918  0.1980
 1759SOL    HW2 5521   3.741   1.699   0.484  0.5819  1.6710  1.9508
 1760SOL     OW 5522   4.266   2.043   0.839 -0.1790  0.0670 -0.3242
 1760SOL    HW1 5523   4.288   1.986   0.765  0.2318  0.3395 -0.4080
 1760SOL    HW2 5524   4.311   2.125   0.821  0.5074 -0.1005  0.5856
 1761SOL     OW 5525   0.514   3.366   2.676 -0.1198 -0.0868 -0.2809
 1761SOL    HW1 5526   0.591   3.308   2.672  0.8510  1.1294 -0.0325
 1761SOL    HW2 5527   0.525   3.425   2.601 -1.2186 -0.3633 -0.6699
 1762SOL     OW 5528   3.636   4.321   0.384 -0.3386 -0.9721 -0.2411
 1762SOL    HW1 5529   3.555   4.365   0.409 -1.4062 -1.4613 -2.5608
 1762SOL    HW2 5530   3.700   4.391   0.375 -0.9587 -0.3670 -0.0457
 1763SOL     OW 5531   1.840   4.093   1.616 -0.2430 -0.0087 -0.7045
 1763SOL    HW1 5532   1.757   4.046   1.629 -0.2866  0.2413 -0.0361
 1763SOL    HW2 5533   1.819   4.184   1.636  0.0669  0.1520 -1.0829
 1764SOL     OW 5534   0.058   3.186   0.929 -0.0136  0.5981 -0.0461
 1764SOL    HW1 5535   0.131   3.136   0.893  1.2310  2.1115  0.2601
 1764SOL    HW2 5536   0.046   3.151   1.017 -2.3374 -2.3521 -1.3617
 1765SOL     OW 5537   2.256   2.462   0.594 -0.0498 -0.6062  0.0830
 1765SOL    HW1 5538   2.264   2.523   0.667 -0.3060  0.9454 -1.1395
 1765SOL    HW2 5539   2.341   2.464   0.551 -0.9878  1.4879 -1.8812
 1766SOL     OW 5540   0.287   3.295   0.292  0.3116 -0.4082 -0.2284
 1766SOL    HW1 5541   0.279   3.238   0.215  0.6679 -0.9109  0.0966
 1766SOL    HW2 5542   0.380   3.291   0.315  0.2384 -0.1287  0.1249
 1767SOL     OW 5543   0.148   2.392   0.462  0.3841  0.2351 -0.1852
 1767SOL    HW1 5544   0.090   2.415   0.534 -0.2713 -0.6485 -0.4123
 1767SOL    HW2 5545   0.213   2.463   0.460 -2.0963  2.6594 -1.5544
 1768SOL     OW 5546   0.355   0.028   1.407  0.3097 -0.3034 -0.5945
 1768SOL    HW1 5547   0.295   0.065   1.342  1.2252 -0.0787 -1.3334
 1768SOL    HW2 5548   0.379   0.101   1.463 -0.8188 -0.5827  0.3044
 1769SOL     OW 5549   4.148   3.180   2.932  0.2534  0.0517  0.8763
 1769SOL    HW1 5550   4.209   3.161   2.861 -0.2293  1.9894 -0.1412
 1769SOL    HW2 5551   4.196   3.160   3.011  1.8979  0.6097  0.0689
 1770SOL     OW 5552   0.079   0.160   0.804  0.1894 -0.0011  0.4750
 1770SOL    HW1 5553   0.061   0.066   0.804 -0.9983  0.2012  0.5241
 1770SOL    HW2 5554   0.101   0.181   0.713  2.6732 -0.6814  0.8666
 1771SOL     OW 5555   0.449   2.959   2.283 -0.3853 -0.4206 -0.2928
 1771SOL    HW1 5556   0.406   2.956   2.197 -0.0582  2.7633 -0.6787
 1771SOL    HW2 5557   0.378   2.981   2.344 -0.1374  0.0717 -0.1823
 1772SOL     OW 5558   0.009   0.154   2.252 -0.1147  0.5372  0.5717
 1772SOL    HW1 5559  -0.006   0.079   2.309  0.7079  0.3632  0.5651
 1772SOL    HW2 5560   0.101   0.148   2.227  0.0312  1.6807  0.7708
 1773SOL     OW 5561   3.995   0.130   0.993  0.2947  0.0043  0.6751
 1773SOL    HW1 5562   3.950   0.214   0.985 -2.2058 -1.3987 -1.4367
 1773SOL    HW2 5563   3.934   0.076   1.044  0.6746 -1.2316 -0.1427
 1774SOL     OW 5564   1.735   2.612   2.840  0.4522 -0.3352  0.4184
 1774SOL    HW1 5565   1.774   2.639   2.923  2.8987  1.4264 -1.1808
 1774SOL    HW2 5566   1.698   2.693   2.803  1.1112 -0.6801 -1.0637
 1775SOL     OW 5567   4.296   2.447   1.480 -0.4083 -0.2030  0.0200
 1775SOL    HW1 5568   4.276   2.537   1.453 -0.0638  0.3087  1.4130
 1775SOL    HW2 5569   4.262   2.441   1.569 -1.0968 -1.7058 -0.3161
 1776SOL     OW 5570   0.310   0.518   0.687  0.6325 -0.1874  0.1593
 1776SOL    HW1 5571   0.276   0.568   0.614 -0.3167 -0.1651  0.6090
 1776SOL    HW2 5572   0.366   0.579   0.734  1.8089 -0.3934 -0.9082
 1777SOL     OW 5573   0.721   2.087   1.106  0.1480  0.1247  0.1451
 1777SOL    HW1 5574   0.714   2.182   1.100  0.9161  0.1785 -0.0002
 1777SOL    HW2 5575   0.812   2.071   1.131  0.4017 -0.6334 -1.1982
 1778SOL     OW 5576   0.267   3.116   0.639 -0.3588  0.1659  0.0475
 1778SOL    HW1 5577   0.182   3.124   0.597 -0.5959 -0.1725  0.4523
 1778SOL    HW2 5578   0.280   3.200   0.684 -0.7626 -0.0093  0.4977
 1779SOL     OW 5579   0.303   1.860   0.021  0.1355 -0.4207  0.0036
 1779SOL    HW1 5580   0.394   1.830   0.024  0.7619  0.9993 -2.2552
 1779SOL    HW2 5581   0.308   1.953   0.043 -0.8310 -0.3928  0.1329
 1780SOL     OW 5582   0.164   3.635   2.981 -0.7730 -0.0248 -0.2704
 1780SOL    HW1 5583   0.071   3.617   2.965 -0.7896 -0.5670  0.3558
 1780SOL    HW2 5584   0.210   3.565   2.934 -0.7657 -0.7804  0.8235
 1781SOL     OW 5585   0.196   2.729   1.140 -0.2396 -0.0771  0.4360
 1781SOL    HW1 5586   0.258   2.721   1.213 -0.2776  0.2983  0.5068
 1781SOL    HW2 5587   0.173   2.638   1.118  1.8275 -0.3718 -0.8532
 1782SOL     OW 5588   0.157   2.826   0.258 -0.1799  0.1886 -0.2662
 1782SOL    HW1 5589   0.244   2.845   0.222 -0.2630 -0.8786 -1.0945
 1782SOL    HW2 5590   0.174   2.790   0.344  0.4474 -2.8222 -1.5340
 1783SOL     OW 5591   2.747   2.792   0.068  0.1940  0.5143 -0.7021
 1783SOL    HW1 5592   2.791   2.742  -0.001 -0.2661 -0.0598 -0.5936
 1783SOL    HW2 5593   2.817   2.815   0.129  0.4790  0.3442 -0.9596
 1784SOL     OW 5594   1.273   3.901   2.183  0.5825  0.3744 -0.1628
 1784SOL    HW1 5595   1.292   3.980   2.234 -1.3383  0.5108  0.4407
 1784SOL    HW2 5596   1.244   3.838   2.248  0.7933 -0.3873 -0.7995
 1785SOL     OW 5597   2.517   0.193   0.219 -0.0355 -0.1180 -0.2681
 1785SOL    HW1 5598   2.473   0.235   0.292 -2.2896 -0.3622 -1.3875
 1785SOL    HW2 5599   2.585   0.255   0.192 -0.0824  0.5733  1.1302
 1786SOL     OW 5600   0.820   1.243   1.356 -0.4158  0.0524 -0.2313
 1786SOL    HW1 5601   0.764   1.199   1.420  0.7105 -1.5281 -0.3002
 1786SOL    HW2 5602   0.864   1.312   1.406  0.2029 -0.9560  0.6289
 1787SOL     OW 5603   2.545   0.910   1.652  0.5149  0.0558  0.2174
 1787SOL    HW1 5604   2.637   0.936   1.644  0.8186 -0.7270  1.0773
 1787SOL    HW2 5605   2.509   0.972   1.715  1.2384 -1.4928  2.2615
 1788SOL     OW 5606   1.528   4.022   0.953  0.8678  0.0157  0.0141
 1788SOL    HW1 5607   1.458   4.034   1.016  0.9805 -0.9185  0.3368
 1788SOL    HW2 5608   1.485   4.025   0.868  0.5216 -0.0317  0.1873
 1789SOL     OW 5609   4.032   1.393   2.628 -0.5433  0.1010 -0.1233
 1789SOL    HW1 5610   4.025   1.448   2.550  0.2478  1.0146  0.4311
 1789SOL    HW2 5611   4.028   1.455   2.701  2.3486 -0.3163  0.4981
 1790SOL     OW 5612   2.248   3.095   0.542 -0.4008  0.2928  0.0327
 1790SOL    HW1 5613   2.189   3.078   0.615  1.1358 -0.6502  1.0924
 1790SOL    HW2 5614   2.275   3.186   0.553 -0.7325  0.3685  0.2219
 1791SOL     OW 5615   0.749   1.181   2.798 -0.0924 -0.3610  0.0116
 1791SOL    HW1 5616   0.785   1.270   2.794 -0.4465 -0.0022  2.9478
 1791SOL    HW2 5617   0.816   1.129   2.842 -0.4439 -1.2716 -0.4889
 1792SOL     OW 5618   2.061   0.883   2.674  0.0220  0.8473  0.3329
 1792SOL    HW1 5619   2.100   0.807   2.717  1.7036  0.6983 -1.3487
 1792SOL    HW2 5620   2.118   0.956   2.697  1.4412  0.6312 -2.1218
 1793SOL     OW 5621   0.193   2.546   1.741  0.1791  0.5627  0.2650
 1793SOL    HW1 5622   0.157   2.457   1.737 -0.0847  0.6898 -0.4457
 1793SOL    HW2 5623   0.122   2.600   1.775  0.1656  0.5859  0.1999
 1794SOL     OW 5624   3.212   3.674   2.805  0.2362 -0.0337  0.0392
 1794SOL    HW1 5625   3.198   3.589   2.762 -1.2514  0.2099  0.0040
 1794SOL    HW2 5626   3.262   3.652   2.884 -0.9441 -1.1057  0.5315
 1795SOL     OW 5627   1.821   1.611   0.072 -0.5360 -0.1652  0.3651
 1795SOL    HW1 5628   1.876   1.678   0.113 -0.6082  1.0213 -1.3551
 1795SOL    HW2 5629   1.881   1.539   0.055  0.2993  0.7039 -0.5473
 1796SOL     OW 5630   2.261   0.329   2.136  0.3575  0.1539  0.1393
 1796SOL    HW1 5631   2.335   0.374   2.177  2.1281 -1.2499 -1.3650
 1796SOL    HW2 5632   2.301   0.261   2.082 -2.0931 -1.1403 -0.1630
 1797SOL     OW 5633   0.803   2.800   2.878  0.0377 -0.0925 -0.2517
 1797SOL    HW1 5634   0.782   2.707   2.885  0.5058 -0.2902 -1.3070
 1797SOL    HW2 5635   0.725   2.845   2.911 -0.3400 -0.8530 -0.0893
 1798SOL     OW 5636   3.401   2.245   0.666  0.1796  0.2815  0.0176
 1798SOL    HW1 5637   3.461   2.208   0.601 -0.7954  0.0333 -0.7651
 1798SOL    HW2 5638   3.428   2.207   0.749 -0.1734 -1.4384 -0.6276
 1799SOL     OW 5639   2.651   2.598   0.991  0.1318  0.4880  0.2098
 1799SOL    HW1 5640   2.568   2.591   1.037  1.1530  0.9451  2.2226
 1799SOL    HW2 5641   2.646   2.681   0.944 -0.7932  0.1751 -0.2655
 1800SOL     OW 5642   0.622   2.654   2.108 -0.6228 -0.1109 -0.1989
 1800SOL    HW1 5643   0.667   2.738   2.097 -0.9300  0.1197  0.2475
 1800SOL    HW2 5644   0.532   2.679   2.130 -0.7777 -0.5619 -0.3196
 1801SOL     OW 5645   3.620   2.665   0.970  0.6661  0.0835  0.3097
 1801SOL    HW1 5646   3.564   2.734   1.005 -0.1663 -0.5131  0.1898
 1801SOL    HW2 5647   3.589   2.651   0.880  0.5231 -0.7403  0.4722
 1802SOL     OW 5648   3.094   0.541   0.037  0.0987 -0.3357  0.3377
 1802SOL    HW1 5649   3.065   0.631   0.052  3.5768  0.8713  0.7115
 1802SOL    HW2 5650   3.094   0.532  -0.058 -1.9552 -0.6602  0.3101
 1803SOL     OW 5651   3.492   3.415   0.471  0.4823  0.3864  0.2173
 1803SOL    HW1 5652   3.513   3.499   0.511  0.7769  0.3279  0.1910
 1803SOL    HW2 5653   3.458   3.362   0.543  0.4729  0.4659  0.2721
 1804SOL     OW 5654   0.084   2.900   2.776  0.0800  0.2046 -0.5406
 1804SOL    HW1 5655   0.064   2.993   2.762  1.5765  0.7761  0.7908
 1804SOL    HW2 5656   0.164   2.884   2.725  1.2995  0.3756  1.2135
 1805SOL     OW 5657   1.579   3.285   2.749 -0.4764 -0.4644 -0.4072
 1805SOL    HW1 5658   1.545   3.250   2.831 -0.8399  0.7158 -0.0322
 1805SOL    HW2 5659   1.512   3.265   2.684 -1.4991  0.9743  0.1367
 1806SOL     OW 5660   3.197   3.030   0.994  0.0662  0.0405 -0.5896
 1806SOL    HW1 5661   3.253   2.956   1.017 -1.4483 -0.9375  0.0954
 1806SOL    HW2 5662   3.145   3.047   1.073 -0.8566  0.6742 -1.3075
 1807SOL     OW 5663   0.106   0.318   0.572 -0.3072  0.2395 -0.4047
 1807SOL    HW1 5664   0.129   0.282   0.487 -0.2611 -1.5470  0.3272
 1807SOL    HW2 5665   0.142   0.407   0.571  1.4083 -0.4264 -1.5038
 1808SOL     OW 5666   0.487   1.891   3.068  0.2650 -0.2400  0.3584
 1808SOL    HW1 5667   0.529   1.960   3.119 -0.8063 -0.3053  1.3764
 1808SOL    HW2 5668   0.529   1.810   3.096 -1.1864 -0.4296  2.1640
 1809SOL     OW 5669   3.945   0.832   2.519 -0.0104  0.7375 -0.4016
 1809SOL    HW1 5670   3.932   0.855   2.427 -0.1177 -1.8035 -1.1055
 1809SOL    HW2 5671   3.996   0.751   2.516  0.2224  0.7490  1.7983
 1810SOL     OW 5672   3.008   2.186   1.840 -0.3588 -0.2337 -0.3179
 1810SOL    HW1 5673   2.934   2.131   1.868 -0.1285 -1.0536 -1.2797
 1810SOL    HW2 5674   3.070   2.180   1.913  0.1650 -2.2046 -0.8659
 1811SOL     OW 5675   0.667   2.232   2.669 -0.2950 -0.6538  0.6069
 1811SOL    HW1 5676   0.726   2.163   2.698  0.3751 -0.5595 -0.4982
 1811SOL    HW2 5677   0.627   2.264   2.750  0.7362 -1.0998  1.3205
 1812SOL     OW 5678   2.890   2.280   1.314  0.5580  0.2639 -0.1886
 1812SOL    HW1 5679   2.836   2.319   1.382  0.6217 -0.1606  0.1112
 1812SOL    HW2 5680   2.978   2.275   1.352  1.2106  2.4393 -1.2435
 1813SOL     OW 5681   2.720   2.974   2.269  0.6148  0.1961  0.1134
 1813SOL    HW1 5682   2.782   2.940   2.334  3.0655  0.9902 -1.6638
 1813SOL    HW2 5683   2.722   2.909   2.198 -0.2557  0.4744 -0.1798
 1814SOL     OW 5684   1.491   2.968   0.023  0.2506  0.1896  0.1146
 1814SOL    HW1 5685   1.546   3.027  -0.029  0.4145 -0.0626 -0.0020
 1814SOL    HW2 5686   1.497   3.002   0.112  0.8617 -0.0292  0.1596
 1815SOL     OW 5687   3.742   2.724   2.444 -0.0027  0.7301 -0.1848
 1815SOL    HW1 5688   3.688   2.654   2.406  2.2416 -1.2642  0.0659
 1815SOL    HW2 5689   3.780   2.768   2.368  0.0118  0.5027 -0.3089
 1816SOL     OW 5690   0.127   2.397   2.159  0.3310  0.6719 -0.3517
 1816SOL    HW1 5691   0.122   2.378   2.252  1.1230 -0.2939 -0.4835
 1816SOL    HW2 5692   0.221   2.396   2.139  0.1636  0.5463 -1.2070
 1817SOL     OW 5693   0.503   0.073   1.722  0.2254 -0.2363  0.0038
 1817SOL    HW1 5694   0.588   0.069   1.679  0.3463 -0.8856  0.2950
 1817SOL    HW2 5695   0.487  -0.016   1.753 -1.0236 -0.3797 -0.9402
 1818SOL     OW 5696   4.182   2.620   0.650  0.0143 -0.2345  0.1468
 1818SOL    HW1 5697   4.270   2.642   0.681  1.0689 -0.6296 -2.3118
 1818SOL    HW2 5698   4.185   2.525   0.638 -1.1248 -0.3983  1.0443
 1819SOL     OW 5699   4.281   1.778   1.800  0.4645 -0.1362 -0.2604
 1819SOL    HW1 5700   4.332   1.735   1.731  2.4696  2.4673 -0.5390
 1819SOL    HW2 5701   4.345   1.832   1.847 -1.4672  0.6992  1.5740
 1820SOL     OW 5702   3.343   1.152   0.218 -0.2048  0.3648  0.0280
 1820SOL    HW1 5703   3.351   1.073   0.165 -0.1658  0.2660  0.1794
 1820SOL    HW2 5704   3.391   1.132   0.298  0.4552  0.8112 -0.2428
 1821SOL     OW 5705   3.831   1.922   1.233 -0.2791  0.1743 -0.1883
 1821SOL    HW1 5706   3.879   1.848   1.272 -1.2649  0.2927  1.3352
 1821SOL    HW2 5707   3.747   1.922   1.279 -0.7306  1.5567 -0.9856
 1822SOL     OW 5708   3.834   3.775   0.386 -0.7334 -0.1686 -0.0871
 1822SOL    HW1 5709   3.840   3.865   0.355 -1.5962  0.0375  0.2994
 1822SOL    HW2 5710   3.748   3.770   0.429 -1.4919 -1.6616 -1.6424
 1823SOL     OW 5711   2.531   0.946   1.018  0.4335  0.1142 -0.1089
 1823SOL    HW1 5712   2.579   1.029   1.009 -0.1141  0.4622  0.1298
 1823SOL    HW2 5713   2.439   0.972   1.019  0.2902 -0.4136  0.9426
 1824SOL     OW 5714   0.014   1.741   2.589  0.6327  0.8363 -0.7025
 1824SOL    HW1 5715  -0.033   1.761   2.670  0.4546  1.6819 -0.9994
 1824SOL    HW2 5716   0.106   1.758   2.610  0.7459 -0.1972 -0.3092
 1825SOL     OW 5717   1.465   4.254   0.340  0.1887  0.8821 -0.4071
 1825SOL    HW1 5718   1.447   4.172   0.386 -1.6484  1.5040  0.0863
 1825SOL    HW2 5719   1.398   4.260   0.273 -0.3791  2.4404  0.2334
 1826SOL     OW 5720   0.221   2.171   1.189 -0.5084 -0.6034  0.1033
 1826SOL    HW1 5721   0.140   2.177   1.240 -1.7818 -0.7554 -1.8228
 1826SOL    HW2 5722   0.223   2.081   1.158  0.7756 -0.7872  0.6589
 1827SOL     OW 5723   1.726   1.545   0.348 -0.0911  0.0936 -0.5341
 1827SOL    HW1 5724   1.777   1.465   0.336  2.1801  1.3657  0.0868
 1827SOL    HW2 5725   1.710   1.577   0.259 -0.8481 -0.8923 -0.7777
 1828SOL     OW 5726   1.365   1.629   0.736  0.3534  0.7682  0.1853
 1828SOL    HW1 5727   1.361   1.605   0.829  0.3107  1.8088  0.4626
 1828SOL    HW2 5728   1.414   1.557   0.695 -0.2508 -0.0552  0.8789
 1829SOL     OW 5729   1.788   0.596   0.154 -0.3892 -0.1151  0.0682
 1829SOL    HW1 5730   1.755   0.647   0.080 -0.3068 -1.6889 -1.0960
 1829SOL    HW2 5731   1.731   0.621   0.227  0.5726  2.7380 -0.0301
 1830SOL     OW 5732   2.027   0.302   0.408  0.7580 -0.7612  0.1486
 1830SOL    HW1 5733   2.119   0.276   0.411  0.8304 -0.4177  1.9628
 1830SOL    HW2 5734   2.026   0.393   0.439 -0.1428 -0.5576 -0.4051
 1831SOL     OW 5735   1.181   3.539   3.056 -0.3730 -0.0700  0.2789
 1831SOL    HW1 5736   1.252   3.519   2.995  0.5686 -0.0180  1.3303
 1831SOL    HW2 5737   1.191   3.476   3.127 -1.0443  0.2928  0.7049
 1832SOL     OW 5738   1.964   0.986   0.261 -0.1796 -0.0061  0.2768
 1832SOL    HW1 5739   1.989   1.071   0.296 -1.1407 -0.1871  1.4657
 1832SOL    HW2 5740   2.012   0.923   0.315 -0.5821 -0.2486  0.3574
 1833SOL     OW 5741   4.024   3.416   0.753 -0.0512 -0.0445 -0.1131
 1833SOL    HW1 5742   4.054   3.337   0.800  2.4895  0.5711 -0.5116
 1833SOL    HW2 5743   3.976   3.382   0.678  1.7209 -1.3280 -0.7641
 1834SOL     OW 5744   2.709   3.715   2.983 -0.1881  0.0148  0.0384
 1834SOL    HW1 5745   2.718   3.626   2.948  0.8057  0.2850 -0.4454
 1834SOL    HW2 5746   2.751   3.771   2.917 -1.5217  0.9407 -0.0603
 1835SOL     OW 5747   4.212   4.090   2.256  0.3247  0.3332  0.0431
 1835SOL    HW1 5748   4.283   4.042   2.214 -0.3878  0.8583 -1.9051
 1835SOL    HW2 5749   4.170   4.138   2.184 -1.3099  0.9023  1.3079
 1836SOL     OW 5750   3.724   2.295   1.982 -0.9315 -0.2348  1.0636
 1836SOL    HW1 5751   3.797   2.248   2.022  0.0485  0.3649  0.0583
 1836SOL    HW2 5752   3.724   2.267   1.891 -1.4974  0.3256  0.8804
 1837SOL     OW 5753   4.329   2.219   1.883 -0.2394  0.1820 -0.3081
 1837SOL    HW1 5754   4.311   2.187   1.971  0.8080  2.8424  1.0121
 1837SOL    HW2 5755   4.424   2.233   1.882 -0.5528  2.8632 -0.7537
 1838SOL     OW 5756   2.730   2.757   2.104  0.1989  0.1205 -0.1206
 1838SOL    HW1 5757   2.824   2.743   2.096  0.3090 -0.0578  1.2745
 1838SOL    HW2 5758   2.691   2.671   2.090  0.1245  0.4292 -2.0313
 1839SOL     OW 5759   2.113   4.245   0.840  0.3519 -0.5854  0.4713
 1839SOL    HW1 5760   2.135   4.157   0.871  0.0652 -0.3899  1.2517
 1839SOL    HW2 5761   2.185   4.300   0.871  1.3347 -0.7718 -1.3305
 1840SOL     OW 5762   0.051   1.833   2.101  0.0141 -0.7472  0.1087
 1840SOL    HW1 5763   0.053   1.741   2.075 -0.7229 -0.7335 -0.0236
 1840SOL    HW2 5764   0.121   1.874   2.052  1.9750 -1.6813  1.9604
 1841SOL     OW 5765   4.110   2.168   3.024  0.2926  0.2562 -0.0516
 1841SOL    HW1 5766   4.042   2.184   3.089  0.3645  0.9015 -0.1340
 1841SOL    HW2 5767   4.115   2.249   2.973  1.3090  0.3154  0.1170
 1842SOL     OW 5768   0.324   1.580   0.339 -0.9481 -0.8226  0.1910
 1842SOL    HW1 5769   0.411   1.567   0.303 -0.0592  0.3655  1.7949
 1842SOL    HW2 5770   0.284   1.647   0.284  0.0020  0.2314  0.7668
 1843SOL     OW 5771   1.717   0.641   1.601 -0.1068 -0.3373 -0.6352
 1843SOL    HW1 5772   1.792   0.589   1.571  0.3593  0.1316 -0.3035
 1843SOL    HW2 5773   1.653   0.576   1.630  2.1155 -0.8820  3.9756
 1844SOL     OW 5774   2.148   3.265   0.185 -0.0687  0.7966 -0.3424
 1844SOL    HW1 5775   2.151   3.260   0.090 -1.9636 -0.9095 -0.3752
 1844SOL    HW2 5776   2.124   3.177   0.214 -3.6393  2.1306  1.4027
 1845SOL     OW 5777   3.869   1.321   0.765  0.2904 -0.2400  0.2301
 1845SOL    HW1 5778   3.799   1.307   0.701 -1.1225  0.5650  1.5478
 1845SOL    HW2 5779   3.897   1.411   0.751  0.8573 -0.4489 -0.0518
 1846SOL     OW 5780   3.887   2.966   3.043 -0.6049  0.5055 -0.3967
 1846SOL    HW1 5781   3.913   3.053   3.072  3.0006 -0.4467 -0.3179
 1846SOL    HW2 5782   3.910   2.964   2.950  2.1559 -1.1397  0.2003
 1847SOL     OW 5783   2.637   3.788   0.160 -0.0791  0.2379 -0.2785
 1847SOL    HW1 5784   2.579   3.812   0.088  0.9644 -0.7436 -1.4891
 1847SOL    HW2 5785   2.650   3.693   0.150  2.7155  0.5916 -0.8648
 1848SOL     OW 5786   3.080   2.067   0.147 -0.4034  0.6093  0.1807
 1848SOL    HW1 5787   3.008   2.115   0.106 -0.0807 -0.8342 -2.2854
 1848SOL    HW2 5788   3.119   2.130   0.208 -3.1295  1.7084  0.9297
 1849SOL     OW 5789   3.910   1.077   2.034  0.0215  0.3731  0.0982
 1849SOL    HW1 5790   3.947   1.121   1.957 -0.1829 -0.2983 -0.3919
 1849SOL    HW2 5791   3.843   1.018   1.998 -1.1896  1.2127  0.9355
 1850SOL     OW 5792   3.693   0.269   1.223 -0.7535  0.4118 -0.6238
 1850SOL    HW1 5793   3.745   0.301   1.150 -2.8056  2.5866 -1.2709
 1850SOL    HW2 5794   3.637   0.343   1.247 -1.3756 -0.7900  2.0408
 1851SOL     OW 5795   3.799   0.785   1.001  0.2949  0.6341  0.1917
 1851SOL    HW1 5796   3.786   0.757   1.092 -0.7354  0.6213  0.0480
 1851SOL    HW2 5797   3.846   0.712   0.960 -0.8433 -0.1606  0.2612
 1852SOL     OW 5798   0.223   1.407   0.673 -0.3741  0.2632  0.3267
 1852SOL    HW1 5799   0.188   1.381   0.758  2.6577 -0.2871  1.5391
 1852SOL    HW2 5800   0.147   1.439   0.624 -2.2725  0.3459  3.1188
 1853SOL     OW 5801   3.262   0.396   2.789  0.6803 -0.1462  0.0167
 1853SOL    HW1 5802   3.193   0.422   2.728  1.3615 -0.8421 -1.0877
 1853SOL    HW2 5803   3.340   0.443   2.759  1.1924 -1.0533 -0.1229
 1854SOL     OW 5804   3.647   2.198   0.208 -0.2721  0.4109  0.4284
 1854SOL    HW1 5805   3.692   2.114   0.221 -0.9743 -0.1643 -0.6802
 1854SOL    HW2 5806   3.662   2.219   0.116 -2.3230  0.1271 -0.0349
 1855SOL     OW 5807   3.715   2.909   0.629 -0.1406  0.6571  0.1862
 1855SOL    HW1 5808   3.688   2.824   0.664  0.7342 -0.2387 -1.2025
 1855SOL    HW2 5809   3.634   2.958   0.620 -0.6741 -0.0510  0.9419
 1856SOL     OW 5810   4.304   0.031   1.753 -0.0381 -0.1513 -0.2232
 1856SOL    HW1 5811   4.261  -0.055   1.748 -2.0102  0.7350  0.3347
 1856SOL    HW2 5812   4.334   0.048   1.664 -0.5104 -0.9898 -0.5574
 1857SOL     OW 5813  -0.002   3.735   1.448 -0.1075 -0.0655 -0.0542
 1857SOL    HW1 5814   0.030   3.661   1.499  0.3250  0.5810  0.6336
 1857SOL    HW2 5815  -0.014   3.700   1.359  1.8951 -0.5200 -0.2028
 1858SOL     OW 5816   3.004   1.770   0.195 -0.1362 -0.3677  0.7035
 1858SOL    HW1 5817   3.018   1.864   0.191  0.7850 -0.5314 -1.2102
 1858SOL    HW2 5818   3.092   1.732   0.192 -0.4985 -1.3059  1.2305
 1859SOL     OW 5819   0.800   3.756   2.397 -0.0449 -0.0482 -0.0001
 1859SOL    HW1 5820   0.769   3.742   2.486  0.3042 -0.5783  0.0449
 1859SOL    HW2 5821   0.821   3.849   2.392  0.3184 -0.0957  0.5927
 1860SOL     OW 5822   1.254   3.641   0.912 -0.4467 -0.4769  0.3161
 1860SOL    HW1 5823   1.314   3.633   0.838 -1.2103  0.4546 -0.4342
 1860SOL    HW2 5824   1.206   3.722   0.895 -2.6657 -1.6898  0.3272
 1861SOL     OW 5825   3.283   0.177   0.560 -0.4306 -0.3184 -0.1481
 1861SOL    HW1 5826   3.187   0.169   0.554 -0.8742  0.3893  3.4258
 1861SOL    HW2 5827   3.298   0.203   0.651  3.1771  0.0506 -0.7350
 1862SOL     OW 5828   0.166   4.363   0.390  0.1602 -0.4660 -0.2549
 1862SOL    HW1 5829   0.221   4.303   0.339 -0.5466 -1.2926 -0.0574
 1862SOL    HW2 5830   0.140   4.313   0.467  1.6405  0.9293  1.2328
 1863SOL     OW 5831   1.598   1.415   3.055  0.3171 -0.5207  0.5667
 1863SOL    HW1 5832   1.614   1.507   3.077 -0.9220 -0.6337  2.1702
 1863SOL    HW2 5833   1.580   1.416   2.961 -2.0562  1.3033  0.9330
 1864SOL     OW 5834   3.429   1.513   2.492  0.4409  0.0575 -0.1667
 1864SOL    HW1 5835   3.337   1.523   2.514  0.3556 -2.1573  0.7115
 1864SOL    HW2 5836   3.476   1.542   2.570  0.5573  1.5367 -0.7432
 1865SOL     OW 5837   0.327   3.910   2.044  0.7692 -0.1084 -0.3410
 1865SOL    HW1 5838   0.374   3.876   1.968 -0.8570  0.8471 -1.8651
 1865SOL    HW2 5839   0.234   3.904   2.019  0.1841  0.2398  1.5777
 1866SOL     OW 5840   3.737   2.873   0.357 -0.5759 -0.0218 -0.7447
 1866SOL    HW1 5841   3.732   2.910   0.446 -1.9349 -0.6186 -0.5512
 1866SOL    HW2 5842   3.810   2.811   0.362  0.5533  1.2687 -0.5738
 1867SOL     OW 5843   3.704   3.378   0.708  0.2392  0.2747 -0.0004
 1867SOL    HW1 5844   3.773   3.364   0.643  0.4937 -0.6040  0.4515
 1867SOL    HW2 5845   3.669   3.464   0.686 -1.0188 -0.7926 -2.5272
 1868SOL     OW 5846   3.883   4.092   1.721  0.1259 -0.5112 -0.3782
 1868SOL    HW1 5847   3.822   4.018   1.730  0.8493 -1.1328 -0.5456
 1868SOL    HW2 5848   3.826   4.166   1.699 -1.1016 -0.1570  3.2843
 1869SOL     OW 5849   3.365   0.953   3.128  0.2314 -0.1379  0.3942
 1869SOL    HW1 5850   3.457   0.979   3.138 -0.2956  1.7665  0.8323
 1869SOL    HW2 5851   3.338   0.995   3.046 -0.0126 -1.4528 -0.2098
 1870SOL     OW 5852   4.171   0.259   0.352 -0.2307 -0.1828 -0.0404
 1870SOL    HW1 5853   4.118   0.261   0.273  0.6957  1.9673 -0.7070
 1870SOL    HW2 5854   4.260   0.247   0.321  0.1058  0.3340  0.6777
 1871SOL     OW 5855   4.266   4.261   0.847  0.1201 -0.7444 -0.3849
 1871SOL    HW1 5856   4.247   4.354   0.843  0.4133 -0.6852 -0.4329
 1871SOL    HW2 5857   4.331   4.246   0.778  0.1735 -0.9577 -0.2924
 1872SOL     OW 5858   1.742   1.886   2.946  0.1112  0.5092 -0.7387
 1872SOL    HW1 5859   1.701   1.840   2.872 -0.2196  1.0241 -0.8799
 1872SOL    HW2 5860   1.721   1.978   2.932  0.0028  0.6082  0.0304
 1873SOL     OW 5861   0.644   0.930   1.278 -0.1842  0.2721  0.2431
 1873SOL    HW1 5862   0.688   0.978   1.208 -1.0396 -0.4442 -0.8239
 1873SOL    HW2 5863   0.712   0.874   1.315  0.7900  2.1329  1.4128
 1874SOL     OW 5864   3.713   0.557   1.989  0.4284  0.7338 -0.0012
 1874SOL    HW1 5865   3.764   0.600   2.057 -0.0272  4.0255 -1.5683
 1874SOL    HW2 5866   3.626   0.595   1.997 -0.1468 -0.2738 -1.1945
 1875SOL     OW 5867   0.535   3.259   2.350 -0.3057  0.1201 -0.0365
 1875SOL    HW1 5868   0.536   3.279   2.256  0.5991 -0.9501 -0.2643
 1875SOL    HW2 5869   0.452   3.214   2.363 -1.0942  1.5050 -0.0315
 1876SOL     OW 5870   1.245   2.784   0.576 -0.0627  0.0604 -1.0472
 1876SOL    HW1 5871   1.164   2.733   0.583  0.4177 -0.9794 -2.5099
 1876SOL    HW2 5872   1.222   2.858   0.521 -0.3147  0.4590 -0.4166
 1877SOL     OW 5873   2.951   3.413   2.778  0.1104 -0.2237  0.3963
 1877SOL    HW1 5874   2.968   3.409   2.684 -0.3076  0.7605  0.2606
 1877SOL    HW2 5875   2.891   3.341   2.795 -0.3685  0.0211 -0.2255
 1878SOL     OW 5876   3.214   1.366   0.316 -0.2381  0.0878  0.0682
 1878SOL    HW1 5877   3.234   1.278   0.285 -0.7582 -0.2226  0.5929
 1878SOL    HW2 5878   3.124   1.381   0.290 -0.3918  0.1693  0.6306
 1879SOL     OW 5879   4.332   0.258   2.671  0.0383 -0.0257 -0.2299
 1879SOL    HW1 5880   4.413   0.207   2.676  1.2877  1.6168 -2.0137
 1879SOL    HW2 5881   4.343   0.327   2.737  0.8705  1.1183 -1.4999
 1880SOL     OW 5882   1.198   2.060   2.766  0.0382  0.5592  0.7041
 1880SOL    HW1 5883   1.286   2.097   2.777  0.1181  0.2178  1.2368
 1880SOL    HW2 5884   1.148   2.092   2.841  0.4998 -1.5070  1.9959
 1881SOL     OW 5885   4.388   1.026   2.066  0.5333  0.1753 -0.3296
 1881SOL    HW1 5886   4.304   0.983   2.081  0.7275 -1.0020 -2.3041
 1881SOL    HW2 5887   4.365   1.119   2.054 -0.1640  0.2809  1.5079
 1882SOL     OW 5888   0.191   4.166   1.827 -0.0420  0.1322 -0.8952
 1882SOL    HW1 5889   0.182   4.173   1.732 -0.1387 -0.4605 -0.9346
 1882SOL    HW2 5890   0.177   4.255   1.859 -2.9792 -0.1275 -1.2085
 1883SOL     OW 5891   0.023   3.409   0.799  0.0742  0.0962  0.9585
 1883SOL    HW1 5892   0.025   3.376   0.709  0.4257 -0.7337  1.2670
 1883SOL    HW2 5893   0.040   3.333   0.854 -1.8882  0.2426  1.8428
 1884SOL     OW 5894   3.551   3.846   0.429 -0.2083  0.0329  0.2241
 1884SOL    HW1 5895   3.487   3.789   0.470  1.8829 -2.2712  0.5036
 1884SOL    HW2 5896   3.569   3.914   0.494  1.9188 -2.6760  2.7268
 1885SOL     OW 5897   1.482   2.758   0.673  0.2443 -1.3088 -0.2672
 1885SOL    HW1 5898   1.516   2.842   0.704 -1.6971 -1.5161  2.8532
 1885SOL    HW2 5899   1.394   2.777   0.641  0.7494 -1.7917 -2.0428
 1886SOL     OW 5900   3.845   3.569   2.283  0.3204 -0.1641 -0.0199
 1886SOL    HW1 5901   3.845   3.660   2.313 -1.4245 -0.2073  0.2387
 1886SOL    HW2 5902   3.753   3.550   2.265  0.5433 -2.1137  0.6721
 1887SOL     OW 5903   2.737   1.087   0.576 -0.3974  0.5956  0.2191
 1887SOL    HW1 5904   2.812   1.120   0.626  0.6736  1.6503 -1.9146
 1887SOL    HW2 5905   2.770   1.082   0.486 -2.0058 -1.8667 -0.3024
 1888SOL     OW 5906   1.439   2.842   1.598 -0.2704 -0.5080 -0.8987
 1888SOL    HW1 5907   1.378   2.798   1.539 -0.1527 -1.0830 -0.6018
 1888SOL    HW2 5908   1.467   2.920   1.550 -0.0769 -1.0289 -1.6558
 1889SOL     OW 5909   0.104   2.166   0.305  0.0024  0.0179  0.2344
 1889SOL    HW1 5910   0.125   2.230   0.372 -0.6065  2.1443 -1.4881
 1889SOL    HW2 5911   0.173   2.176   0.240  1.0345 -2.5582  0.7993
 1890SOL     OW 5912   2.712   0.509   1.455 -0.3754  0.0890  0.3813
 1890SOL    HW1 5913   2.722   0.424   1.498 -0.5135  0.2675  0.7672
 1890SOL    HW2 5914   2.706   0.487   1.362  0.0372 -0.2876  0.4383
 1891SOL     OW 5915   4.153   0.063   2.728  0.0347  0.4710  0.2273
 1891SOL    HW1 5916   4.188   0.004   2.662  0.7002  0.1262  0.8651
 1891SOL    HW2 5917   4.210   0.140   2.725 -2.7340  2.6910 -2.8988
 1892SOL     OW 5918   0.371   2.372   2.075 -0.0219  0.0767 -0.2774
 1892SOL    HW1 5919   0.396   2.296   2.127  0.4645  0.7008  0.4277
 1892SOL    HW2 5920   0.391   2.348   1.984 -1.5547 -1.2987 -0.3009
 1893SOL     OW 5921   1.266   2.039   1.965 -0.4681 -0.2085  0.2836
 1893SOL    HW1 5922   1.185   1.991   1.948 -0.3465 -0.3653  0.1481
 1893SOL    HW2 5923   1.305   2.051   1.879 -2.1487  3.1090 -0.1903
 1894SOL     OW 5924   3.482   3.037   2.379 -0.0673  0.1522  0.4217
 1894SOL    HW1 5925   3.474   2.992   2.463 -1.2799 -1.1241 -0.3397
 1894SOL    HW2 5926   3.446   2.976   2.315  0.9009  1.0634 -1.0587
 1895SOL     OW 5927   4.042   3.836   2.108  0.6475 -0.2205 -0.6379
 1895SOL    HW1 5928   3.976   3.808   2.172  1.9871 -0.9682  0.4842
 1895SOL    HW2 5929   4.017   3.926   2.086 -0.0267 -0.0484  0.7127
 1896SOL     OW 5930   0.537   4.368   0.910 -0.2401 -0.5233  0.1675
 1896SOL    HW1 5931   0.630   4.372   0.888 -0.4589  1.6677 -0.6115
 1896SOL    HW2 5932   0.526   4.433   0.980 -1.1711 -0.8746  0.3666
 1897CL      CL 5933   0.321   3.117   3.096 -0.2574  0.3918  0.2295
   4.39229   4.39229   3.10582   0.00000   0.00000   0.00000   0.00000   2.19615   2.19615
