TC5B in water
 5933
    1ASN      N    1   2.394   3.705   1.498
    1ASN     H1    2   2.449   3.685   1.579
    1ASN     H2    3   2.415   3.797   1.465
    1ASN     H3    4   2.297   3.700   1.523
    1ASN     CA    5   2.423   3.605   1.392
    1ASN     HA    6   2.394   3.518   1.431
    1ASN     CB    7   2.340   3.632   1.265
    1ASN    HB1    8   2.371   3.571   1.192
    1ASN    HB2    9   2.352   3.727   1.237
    1ASN     CG   10   2.192   3.605   1.293
    1ASN    OD1   11   2.157   3.562   1.402
    1ASN    ND2   12   2.103   3.633   1.200
    1ASN   HD21   13   2.133   3.671   1.112
    1ASN   HD22   14   2.006   3.616   1.217
    1ASN      C   15   2.572   3.588   1.364
    1ASN      O   16   2.621   3.477   1.378
    2LEU      N   17   2.646   3.695   1.331
    2LEU      H   18   2.599   3.783   1.321
    2LEU     CA   19   2.792   3.692   1.309
    2LEU     HA   20   2.804   3.641   1.224
    2LEU     CB   21   2.843   3.837   1.292
    2LEU    HB1   22   2.806   3.872   1.206
    2LEU    HB2   23   2.943   3.833   1.287
    2LEU     CG   24   2.805   3.937   1.405
    2LEU     HG   25   2.735   3.892   1.461
    2LEU    CD1   26   2.923   3.972   1.494
    2LEU   HD11   27   2.893   4.037   1.565
    2LEU   HD12   28   2.958   3.889   1.537
    2LEU   HD13   29   2.995   4.014   1.439
    2LEU    CD2   30   2.749   4.067   1.346
    2LEU   HD21   31   2.725   4.129   1.420
    2LEU   HD22   32   2.818   4.109   1.287
    2LEU   HD23   33   2.667   4.047   1.291
    2LEU      C   34   2.870   3.611   1.414
    2LEU      O   35   2.945   3.519   1.378
    3TYR      N   36   2.849   3.637   1.543
    3TYR      H   37   2.784   3.710   1.566
    3TYR     CA   38   2.915   3.566   1.652
    3TYR     HA   39   3.012   3.568   1.629
    3TYR     CB   40   2.888   3.639   1.784
    3TYR    HB1   41   2.805   3.601   1.826
    3TYR    HB2   42   2.874   3.736   1.765
    3TYR     CG   43   3.002   3.626   1.883
    3TYR    CD1   44   3.009   3.514   1.968
    3TYR    HD1   45   2.938   3.444   1.965
    3TYR    CE1   46   3.118   3.500   2.056
    3TYR    HE1   47   3.124   3.420   2.117
    3TYR     CZ   48   3.220   3.597   2.058
    3TYR     OH   49   3.327   3.580   2.140
    3TYR     HH   50   3.390   3.658   2.130
    3TYR    CE2   51   3.212   3.711   1.975
    3TYR    HE2   52   3.283   3.780   1.977
    3TYR    CD2   53   3.102   3.725   1.887
    3TYR    HD2   54   3.095   3.805   1.828
    3TYR      C   55   2.874   3.418   1.661
    3TYR      O   56   2.955   3.333   1.698
    4ILE      N   57   2.750   3.385   1.623
    4ILE      H   58   2.688   3.459   1.597
    4ILE     CA   59   2.698   3.247   1.615
    4ILE     HA   60   2.716   3.206   1.705
    4ILE     CB   61   2.545   3.245   1.588
    4ILE     HB   62   2.535   3.275   1.493
    4ILE    CG2   63   2.488   3.104   1.604
    4ILE   HG21   64   2.390   3.105   1.586
    4ILE   HG22   65   2.533   3.042   1.539
    4ILE   HG23   66   2.505   3.071   1.697
    4ILE    CG1   67   2.464   3.346   1.674
    4ILE   HG11   68   2.367   3.333   1.653
    4ILE   HG12   69   2.492   3.438   1.648
    4ILE     CD   70   2.482   3.333   1.825
    4ILE    HD1   71   2.426   3.402   1.872
    4ILE    HD2   72   2.454   3.242   1.855
    4ILE    HD3   73   2.578   3.347   1.849
    4ILE      C   74   2.775   3.170   1.507
    4ILE      O   75   2.822   3.059   1.531
    5GLN      N   76   2.793   3.232   1.390
    5GLN      H   77   2.751   3.322   1.376
    5GLN     CA   78   2.872   3.175   1.280
    5GLN     HA   79   2.833   3.084   1.267
    5GLN     CB   80   2.855   3.261   1.153
    5GLN    HB1   81   2.928   3.328   1.149
    5GLN    HB2   82   2.767   3.308   1.157
    5GLN     CG   83   2.860   3.175   1.025
    5GLN    HG1   84   2.930   3.105   1.036
    5GLN    HG2   85   2.883   3.234   0.947
    5GLN     CD   86   2.726   3.106   0.996
    5GLN    OE1   87   2.707   2.988   1.020
    5GLN    NE2   88   2.631   3.177   0.939
    5GLN   HE21   89   2.647   3.274   0.916
    5GLN   HE22   90   2.542   3.135   0.918
    5GLN      C   91   3.021   3.160   1.315
    5GLN      O   92   3.085   3.068   1.266
    6TRP      N   93   3.077   3.246   1.401
    6TRP      H   94   3.023   3.326   1.430
    6TRP     CA   95   3.212   3.229   1.455
    6TRP     HA   96   3.269   3.202   1.377
    6TRP     CB   97   3.262   3.362   1.512
    6TRP    HB1   98   3.198   3.392   1.583
    6TRP    HB2   99   3.264   3.430   1.439
    6TRP     CG  100   3.399   3.357   1.573
    6TRP    CD1  101   3.516   3.358   1.506
    6TRP    HD1  102   3.525   3.366   1.406
    6TRP    NE1  103   3.621   3.348   1.595
    6TRP    HE1  104   3.717   3.344   1.568
    6TRP    CE2  105   3.577   3.344   1.725
    6TRP    CZ2  106   3.644   3.337   1.848
    6TRP    HZ2  107   3.744   3.334   1.851
    6TRP    CH2  108   3.568   3.333   1.966
    6TRP    HH2  109   3.614   3.328   2.055
    6TRP    CZ3  110   3.428   3.335   1.959
    6TRP    HZ3  111   3.374   3.331   2.044
    6TRP    CE3  112   3.362   3.344   1.835
    6TRP    HE3  113   3.262   3.348   1.833
    6TRP    CD2  114   3.435   3.348   1.715
    6TRP      C  115   3.221   3.115   1.558
    6TRP      O  116   3.314   3.034   1.554
    7LEU      N  117   3.124   3.106   1.651
    7LEU      H  118   3.052   3.175   1.651
    7LEU     CA  119   3.120   2.999   1.750
    7LEU     HA  120   3.211   3.001   1.791
    7LEU     CB  121   3.013   3.028   1.857
    7LEU    HB1  122   2.994   2.942   1.906
    7LEU    HB2  123   2.930   3.059   1.811
    7LEU     CG  124   3.054   3.134   1.961
    7LEU     HG  125   3.079   3.217   1.910
    7LEU    CD1  126   2.937   3.160   2.056
    7LEU   HD11  127   2.963   3.229   2.123
    7LEU   HD12  128   2.858   3.192   2.003
    7LEU   HD13  129   2.912   3.075   2.103
    7LEU    CD2  130   3.175   3.091   2.045
    7LEU   HD21  131   3.197   3.164   2.111
    7LEU   HD22  132   3.153   3.007   2.095
    7LEU   HD23  133   3.253   3.075   1.986
    7LEU      C  134   3.099   2.860   1.688
    7LEU      O  135   3.170   2.767   1.728
    8LYS      N  136   3.009   2.844   1.590
    8LYS      H  137   2.958   2.924   1.558
    8LYS     CA  138   2.982   2.713   1.527
    8LYS     HA  139   2.959   2.654   1.604
    8LYS     CB  140   2.862   2.722   1.431
    8LYS    HB1  141   2.789   2.774   1.477
    8LYS    HB2  142   2.830   2.629   1.412
    8LYS     CG  143   2.891   2.791   1.296
    8LYS    HG1  144   2.972   2.848   1.307
    8LYS    HG2  145   2.813   2.849   1.273
    8LYS     CD  146   2.916   2.693   1.180
    8LYS    HD1  147   2.837   2.632   1.171
    8LYS    HD2  148   2.998   2.640   1.199
    8LYS     CE  149   2.935   2.772   1.050
    8LYS    HE1  150   3.022   2.748   1.009
    8LYS    HE2  151   2.933   2.870   1.070
    8LYS     NZ  152   2.828   2.744   0.952
    8LYS    HZ1  153   2.844   2.797   0.869
    8LYS    HZ2  154   2.828   2.646   0.929
    8LYS    HZ3  155   2.739   2.769   0.991
    8LYS      C  156   3.104   2.649   1.460
    8LYS      O  157   3.112   2.527   1.451
    9ASP      N  158   3.201   2.731   1.419
    9ASP      H  159   3.184   2.830   1.425
    9ASP     CA  160   3.331   2.690   1.363
    9ASP     HA  161   3.310   2.610   1.307
    9ASP     CB  162   3.387   2.808   1.282
    9ASP    HB1  163   3.487   2.808   1.290
    9ASP    HB2  164   3.351   2.893   1.319
    9ASP     CG  165   3.351   2.801   1.133
    9ASP    OD1  166   3.231   2.787   1.102
    9ASP    OD2  167   3.447   2.811   1.052
    9ASP      C  168   3.432   2.646   1.471
    9ASP      O  169   3.539   2.595   1.435
   10GLY      N  170   3.403   2.664   1.600
   10GLY      H  171   3.314   2.705   1.622
   10GLY     CA  172   3.490   2.630   1.713
   10GLY    HA1  173   3.566   2.576   1.677
   10GLY    HA2  174   3.436   2.574   1.776
   10GLY      C  175   3.547   2.751   1.789
   10GLY      O  176   3.634   2.733   1.875
   11GLY      N  177   3.501   2.873   1.760
   11GLY      H  178   3.432   2.882   1.688
   11GLY     CA  179   3.547   2.995   1.826
   11GLY    HA1  180   3.517   2.990   1.922
   11GLY    HA2  181   3.502   3.073   1.782
   11GLY      C  182   3.700   3.012   1.819
   11GLY      O  183   3.755   3.009   1.709
   12PRO      N  184   3.771   3.027   1.933
   12PRO     CD  185   3.720   3.030   2.070
   12PRO    HD1  186   3.702   2.937   2.102
   12PRO    HD2  187   3.636   3.084   2.073
   12PRO     CG  188   3.830   3.097   2.153
   12PRO    HG1  189   3.828   3.064   2.247
   12PRO    HG2  190   3.821   3.196   2.152
   12PRO     CB  191   3.958   3.053   2.082
   12PRO    HB1  192   3.991   2.966   2.119
   12PRO    HB2  193   4.029   3.123   2.092
   12PRO     CA  194   3.917   3.039   1.935
   12PRO     HA  195   3.940   3.118   1.879
   12PRO      C  196   3.990   2.919   1.871
   12PRO      O  197   4.098   2.936   1.814
   13SER      N  198   3.930   2.799   1.874
   13SER      H  199   3.839   2.794   1.915
   13SER     CA  200   3.989   2.674   1.824
   13SER     HA  201   4.087   2.684   1.843
   13SER     CB  202   3.930   2.555   1.901
   13SER    HB1  203   3.968   2.469   1.868
   13SER    HB2  204   3.830   2.553   1.892
   13SER     OG  205   3.960   2.566   2.039
   13SER     HG  206   3.921   2.488   2.088
   13SER      C  207   3.974   2.655   1.673
   13SER      O  208   3.986   2.543   1.624
   14SER      N  209   3.948   2.763   1.597
   14SER      H  210   3.945   2.852   1.643
   14SER     CA  211   3.923   2.761   1.453
   14SER     HA  212   3.944   2.667   1.423
   14SER     CB  213   3.775   2.793   1.428
   14SER    HB1  214   3.763   2.889   1.406
   14SER    HB2  215   3.720   2.769   1.507
   14SER     OG  216   3.727   2.718   1.318
   14SER     HG  217   3.631   2.740   1.303
   14SER      C  218   4.017   2.852   1.372
   14SER      O  219   3.992   2.880   1.255
   15GLY      N  220   4.126   2.900   1.434
   15GLY      H  221   4.137   2.880   1.531
   15GLY     CA  222   4.229   2.980   1.367
   15GLY    HA1  223   4.260   2.929   1.287
   15GLY    HA2  224   4.305   2.990   1.431
   15GLY      C  225   4.182   3.120   1.322
   15GLY      O  226   4.238   3.174   1.227
   16ARG      N  227   4.080   3.176   1.388
   16ARG      H  228   4.046   3.129   1.470
   16ARG     CA  229   4.013   3.300   1.349
   16ARG     HA  230   4.081   3.354   1.299
   16ARG     CB  231   3.895   3.268   1.255
   16ARG    HB1  232   3.932   3.223   1.173
   16ARG    HB2  233   3.851   3.354   1.229
   16ARG     CG  234   3.789   3.175   1.316
   16ARG    HG1  235   3.747   3.222   1.394
   16ARG    HG2  236   3.834   3.092   1.349
   16ARG     CD  237   3.676   3.133   1.220
   16ARG    HD1  238   3.659   3.206   1.154
   16ARG    HD2  239   3.593   3.115   1.272
   16ARG     NE  240   3.709   3.011   1.144
   16ARG     HE  241   3.682   2.925   1.186
   16ARG     CZ  242   3.770   3.001   1.027
   16ARG    NH1  243   3.813   3.106   0.960
   16ARG   HH11  244   3.800   3.197   0.998
   16ARG   HH12  245   3.858   3.094   0.872
   16ARG    NH2  246   3.787   2.882   0.973
   16ARG   HH21  247   3.755   2.801   1.021
   16ARG   HH22  248   3.833   2.874   0.885
   16ARG      C  249   3.970   3.384   1.471
   16ARG      O  250   3.906   3.329   1.562
   17PRO      N  251   4.000   3.515   1.476
   17PRO     CD  252   4.066   3.593   1.372
   17PRO    HD1  253   4.022   3.576   1.284
   17PRO    HD2  254   4.162   3.566   1.367
   17PRO     CG  255   4.052   3.739   1.414
   17PRO    HG1  256   3.970   3.780   1.373
   17PRO    HG2  257   4.132   3.792   1.387
   17PRO     CB  258   4.039   3.731   1.566
   17PRO    HB1  259   3.989   3.810   1.602
   17PRO    HB2  260   4.130   3.728   1.609
   17PRO     CA  261   3.962   3.601   1.588
   17PRO     HA  262   3.987   3.555   1.674
   17PRO      C  263   3.810   3.625   1.594
   17PRO      O  264   3.743   3.609   1.492
   18PRO      N  265   3.755   3.666   1.709
   18PRO     CD  266   3.823   3.687   1.836
   18PRO    HD1  267   3.904   3.743   1.821
   18PRO    HD2  268   3.851   3.599   1.874
   18PRO     CG  269   3.722   3.757   1.927
   18PRO    HG1  270   3.732   3.857   1.920
   18PRO    HG2  271   3.734   3.730   2.022
   18PRO     CB  272   3.587   3.711   1.873
   18PRO    HB1  273   3.517   3.779   1.890
   18PRO    HB2  274   3.561   3.624   1.914
   18PRO     CA  275   3.613   3.695   1.723
   18PRO     HA  276   3.561   3.619   1.683
   18PRO      C  277   3.574   3.822   1.645
   18PRO      O  278   3.652   3.918   1.641
   19PRO      N  279   3.453   3.828   1.588
   19PRO     CD  280   3.356   3.720   1.581
   19PRO    HD1  281   3.334   3.688   1.674
   19PRO    HD2  282   3.394   3.644   1.529
   19PRO     CG  283   3.232   3.777   1.513
   19PRO    HG1  284   3.166   3.810   1.580
   19PRO    HG2  285   3.189   3.709   1.454
   19PRO     CB  286   3.289   3.893   1.431
   19PRO    HB1  287   3.219   3.964   1.416
   19PRO    HB2  288   3.323   3.862   1.343
   19PRO     CA  289   3.403   3.946   1.519
   19PRO     HA  290   3.475   3.989   1.465
   19PRO      C  291   3.356   4.053   1.619
   19PRO      O  292   3.272   4.024   1.705
   20SER      N  293   3.411   4.174   1.609
   20SER      H  294   3.488   4.184   1.545
   20SER     CA  295   3.369   4.295   1.682
   20SER     HA  296   3.350   4.262   1.775
   20SER     CB  297   3.481   4.399   1.682
   20SER    HB1  298   3.454   4.481   1.733
   20SER    HB2  299   3.507   4.424   1.589
   20SER     OG  300   3.596   4.346   1.745
   20SER     HG  301   3.669   4.415   1.745
   20SER      C  302   3.243   4.358   1.622
   20SER    OC1  303   3.150   4.382   1.701
   20SER    OC2  304   3.245   4.384   1.500
   21SOL     OW  305   0.230   0.628   0.113
   21SOL    HW1  306   0.137   0.626   0.150
   21SOL    HW2  307   0.231   0.589   0.021
   22SOL     OW  308   0.225   0.275   0.996
   22SOL    HW1  309   0.260   0.258   1.088
   22SOL    HW2  310   0.137   0.230   0.984
   23SOL     OW  311   0.019   0.368   0.647
   23SOL    HW1  312  -0.063   0.411   0.686
   23SOL    HW2  313  -0.009   0.295   0.584
   24SOL     OW  314   0.569   1.275   1.165
   24SOL    HW1  315   0.476   1.268   1.128
   24SOL    HW2  316   0.580   1.364   1.209
   25SOL     OW  317   1.555   1.511   0.703
   25SOL    HW1  318   1.498   1.495   0.784
   25SOL    HW2  319   1.496   1.521   0.623
   26SOL     OW  320   1.135   0.703   0.717
   26SOL    HW1  321   1.192   0.781   0.692
   26SOL    HW2  322   1.075   0.729   0.793
   27SOL     OW  323   1.755   0.607   0.231
   27SOL    HW1  324   1.743   0.594   0.132
   27SOL    HW2  325   1.725   0.526   0.280
   28SOL     OW  326   0.768   1.144   1.023
   28SOL    HW1  327   0.690   1.161   1.083
   28SOL    HW2  328   0.802   1.231   0.987
   29SOL     OW  329   0.850   0.798   1.823
   29SOL    HW1  330   0.846   0.874   1.888
   29SOL    HW2  331   0.872   0.834   1.732
   30SOL     OW  332   0.685   1.012   0.665
   30SOL    HW1  333   0.754   0.996   0.735
   30SOL    HW2  334   0.612   1.069   0.703
   31SOL     OW  335   0.686   1.161   1.803
   31SOL    HW1  336   0.746   1.240   1.817
   31SOL    HW2  337   0.600   1.192   1.762
   32SOL     OW  338   0.335   1.435   1.061
   32SOL    HW1  339   0.257   1.404   1.008
   32SOL    HW2  340   0.393   1.493   1.004
   33SOL     OW  341   1.460   1.505   1.339
   33SOL    HW1  342   1.484   1.599   1.365
   33SOL    HW2  343   1.444   1.451   1.421
   34SOL     OW  344   0.438   0.392   1.499
   34SOL    HW1  345   0.520   0.336   1.508
   34SOL    HW2  346   0.357   0.334   1.503
   35SOL     OW  347   1.603   0.447   0.737
   35SOL    HW1  348   1.529   0.493   0.687
   35SOL    HW2  349   1.654   0.515   0.790
   36SOL     OW  350   0.231   1.713   0.483
   36SOL    HW1  351   0.265   1.790   0.537
   36SOL    HW2  352   0.275   1.713   0.393
   37SOL     OW  353   1.127   1.341   1.690
   37SOL    HW1  354   1.174   1.341   1.778
   37SOL    HW2  355   1.079   1.254   1.679
   38SOL     OW  356   0.230   1.434   0.538
   38SOL    HW1  357   0.204   1.530   0.538
   38SOL    HW2  358   0.159   1.380   0.583
   39SOL     OW  359   0.240   1.091   0.886
   39SOL    HW1  360   0.254   1.007   0.938
   39SOL    HW2  361   0.185   1.155   0.941
   40SOL     OW  362   0.620   1.786   1.439
   40SOL    HW1  363   0.528   1.769   1.474
   40SOL    HW2  364   0.648   1.878   1.465
   41SOL     OW  365   0.606   0.964   0.123
   41SOL    HW1  366   0.613   1.048   0.069
   41SOL    HW2  367   0.652   0.977   0.211
   42SOL     OW  368   1.594   0.114   1.480
   42SOL    HW1  369   1.576   0.181   1.408
   42SOL    HW2  370   1.591   0.160   1.569
   43SOL     OW  371   0.122   0.643   0.563
   43SOL    HW1  372   0.077   0.555   0.580
   43SOL    HW2  373   0.121   0.697   0.647
   44SOL     OW  374   1.842   1.767   0.359
   44SOL    HW1  375   1.896   1.738   0.439
   44SOL    HW2  376   1.872   1.857   0.330
   45SOL     OW  377   0.027   1.596   0.117
   45SOL    HW1  378   0.008   1.500   0.138
   45SOL    HW2  379  -0.006   1.654   0.192
   46SOL     OW  380   1.689   0.922   0.612
   46SOL    HW1  381   1.784   0.893   0.620
   46SOL    HW2  382   1.681   0.987   0.537
   47SOL     OW  383   1.641   1.108   0.432
   47SOL    HW1  384   1.727   1.110   0.380
   47SOL    HW2  385   1.655   1.155   0.520
   48SOL     OW  386   0.113   0.737   1.597
   48SOL    HW1  387   0.201   0.724   1.642
   48SOL    HW2  388   0.100   0.834   1.575
   49SOL     OW  389   0.613   1.365   0.726
   49SOL    HW1  390   0.564   1.278   0.735
   49SOL    HW2  391   0.590   1.408   0.639
   50SOL     OW  392   1.293   1.228   1.423
   50SOL    HW1  393   1.330   1.155   1.365
   50SOL    HW2  394   1.345   1.233   1.508
   51SOL     OW  395   0.809   0.004   0.502
   51SOL    HW1  396   0.849   0.095   0.493
   51SOL    HW2  397   0.709   0.012   0.508
   52SOL     OW  398   0.197   0.976   1.264
   52SOL    HW1  399   0.286   0.931   1.250
   52SOL    HW2  400   0.124   0.911   1.245
   53SOL     OW  401   1.525   0.999   0.190
   53SOL    HW1  402   1.462   0.923   0.203
   53SOL    HW2  403   1.573   1.017   0.276
   54SOL     OW  404   1.187   1.792   1.616
   54SOL    HW1  405   1.211   1.852   1.540
   54SOL    HW2  406   1.194   1.697   1.586
   55SOL     OW  407   0.317   0.251   1.801
   55SOL    HW1  408   0.388   0.322   1.807
   55SOL    HW2  409   0.229   0.290   1.829
   56SOL     OW  410   1.466   1.417   0.953
   56SOL    HW1  411   1.407   1.423   1.033
   56SOL    HW2  412   1.451   1.329   0.907
   57SOL     OW  413   1.667   1.714   0.572
   57SOL    HW1  414   1.626   1.691   0.484
   57SOL    HW2  415   1.649   1.640   0.637
   58SOL     OW  416   0.598   0.729   0.270
   58SOL    HW1  417   0.622   0.798   0.202
   58SOL    HW2  418   0.520   0.762   0.324
   59SOL     OW  419   1.281   0.345   0.944
   59SOL    HW1  420   1.195   0.295   0.931
   59SOL    HW2  421   1.343   0.291   1.000
   60SOL     OW  422   1.576   1.662   0.307
   60SOL    HW1  423   1.665   1.708   0.310
   60SOL    HW2  424   1.555   1.638   0.212
   61SOL     OW  425   0.807   0.605   1.465
   61SOL    HW1  426   0.760   0.602   1.554
   61SOL    HW2  427   0.756   0.550   1.399
   62SOL     OW  428   1.394   0.469   1.674
   62SOL    HW1  429   1.374   0.512   1.762
   62SOL    HW2  430   1.472   0.407   1.683
   63SOL     OW  431   0.973   0.890   1.572
   63SOL    HW1  432   1.019   0.806   1.543
   63SOL    HW2  433   0.917   0.924   1.497
   64SOL     OW  434   0.991   0.410   1.242
   64SOL    HW1  435   0.914   0.444   1.296
   64SOL    HW2  436   0.957   0.359   1.163
   65SOL     OW  437   1.041   0.701   0.429
   65SOL    HW1  438   1.067   0.697   0.525
   65SOL    HW2  439   0.956   0.650   0.415
   66SOL     OW  440   0.076   0.811   0.789
   66SOL    HW1  441   0.175   0.799   0.798
   66SOL    HW2  442   0.052   0.906   0.810
   67SOL     OW  443   0.130   1.821   1.571
   67SOL    HW1  444   0.120   1.806   1.670
   67SOL    HW2  445   0.044   1.857   1.535
   68SOL     OW  446   0.865   0.348   0.195
   68SOL    HW1  447   0.924   0.411   0.146
   68SOL    HW2  448   0.884   0.254   0.166
   69SOL     OW  449   1.719   0.585   1.831
   69SOL    HW1  450   1.693   0.674   1.795
   69SOL    HW2  451   1.717   0.517   1.758
   70SOL     OW  452   1.362   1.144   0.545
   70SOL    HW1  453   1.445   1.115   0.497
   70SOL    HW2  454   1.313   1.211   0.489
   71SOL     OW  455   0.550   0.196   0.885
   71SOL    HW1  456   0.545   0.191   0.985
   71SOL    HW2  457   0.552   0.292   0.856
   72SOL     OW  458   1.008   1.456   0.477
   72SOL    HW1  459   0.962   1.528   0.425
   72SOL    HW2  460   1.004   1.476   0.575
   73SOL     OW  461   0.351   1.801   0.853
   73SOL    HW1  462   0.401   1.715   0.859
   73SOL    HW2  463   0.416   1.878   0.850
   74SOL     OW  464   1.795   1.066   0.873
   74SOL    HW1  465   1.733   1.051   0.797
   74SOL    HW2  466   1.743   1.077   0.958
   75SOL     OW  467   1.227   1.550   1.506
   75SOL    HW1  468   1.233   1.473   1.570
   75SOL    HW2  469   1.175   1.524   1.426
   76SOL     OW  470   0.321   0.943   0.242
   76SOL    HW1  471   0.403   0.982   0.200
   76SOL    HW2  472   0.294   0.861   0.193
   77SOL     OW  473   1.458   0.735   0.728
   77SOL    HW1  474   1.453   0.670   0.803
   77SOL    HW2  475   1.538   0.794   0.741
   78SOL     OW  476   0.461   1.266   1.727
   78SOL    HW1  477   0.411   1.267   1.641
   78SOL    HW2  478   0.398   1.248   1.803
   79SOL     OW  479   1.111   1.776   0.237
   79SOL    HW1  480   1.051   1.714   0.287
   79SOL    HW2  481   1.142   1.732   0.152
   80SOL     OW  482   0.202   0.285   1.498
   80SOL    HW1  483   0.122   0.345   1.485
   80SOL    HW2  484   0.192   0.236   1.584
   81SOL     OW  485   1.632   1.377   0.081
   81SOL    HW1  486   1.600   1.471   0.071
   81SOL    HW2  487   1.556   1.314   0.069
   82SOL     OW  488   0.464   1.743   0.323
   82SOL    HW1  489   0.497   1.782   0.409
   82SOL    HW2  490   0.540   1.736   0.258
   83SOL     OW  491   1.400   0.107   0.426
   83SOL    HW1  492   1.376   0.070   0.336
   83SOL    HW2  493   1.499   0.123   0.430
   84SOL     OW  494   0.249   1.785   1.241
   84SOL    HW1  495   0.306   1.720   1.291
   84SOL    HW2  496   0.233   1.752   1.148
   85SOL     OW  497   0.940   1.698   0.904
   85SOL    HW1  498   1.020   1.641   0.925
   85SOL    HW2  499   0.891   1.658   0.827
   86SOL     OW  500   0.382   0.700   0.480
   86SOL    HW1  501   0.427   0.610   0.477
   86SOL    HW2  502   0.288   0.689   0.513
   87SOL     OW  503   1.547   0.222   1.729
   87SOL    HW1  504   1.542   0.259   1.821
   87SOL    HW2  505   1.475   0.153   1.717
   88SOL     OW  506   0.614   0.122   0.117
   88SOL    HW1  507   0.712   0.100   0.124
   88SOL    HW2  508   0.583   0.105   0.024
   89SOL     OW  509   0.781   0.264   1.749
   89SOL    HW1  510   0.848   0.203   1.792
   89SOL    HW2  511   0.708   0.283   1.814
   90SOL     OW  512   0.888   1.514   1.195
   90SOL    HW1  513   0.865   1.489   1.101
   90SOL    HW2  514   0.949   1.445   1.234
   91SOL     OW  515   1.351   0.590   1.433
   91SOL    HW1  516   1.379   0.547   1.518
   91SOL    HW2  517   1.376   0.686   1.434
   92SOL     OW  518   0.803   1.402   0.924
   92SOL    HW1  519   0.893   1.416   0.882
   92SOL    HW2  520   0.732   1.404   0.853
   93SOL     OW  521   0.922   0.503   0.899
   93SOL    HW1  522   0.897   0.494   0.803
   93SOL    HW2  523   0.970   0.421   0.930
   94SOL     OW  524   0.539   0.064   0.512
   94SOL    HW1  525   0.458   0.065   0.570
   94SOL    HW2  526   0.542   0.147   0.457
   95SOL     OW  527   1.434   1.188   0.041
   95SOL    HW1  528   1.466   1.112   0.098
   95SOL    HW2  529   1.342   1.215   0.071
   96SOL     OW  530   0.297   0.035   0.171
   96SOL    HW1  531   0.346   0.119   0.150
   96SOL    HW2  532   0.359  -0.030   0.216
   97SOL     OW  533   0.935   0.236   0.480
   97SOL    HW1  534   0.887   0.277   0.402
   97SOL    HW2  535   1.034   0.234   0.461
   98SOL     OW  536   1.076   0.683   1.464
   98SOL    HW1  537   0.996   0.622   1.467
   98SOL    HW2  538   1.157   0.630   1.440
   99SOL     OW  539   1.227   1.570   0.793
   99SOL    HW1  540   1.248   1.644   0.728
   99SOL    HW2  541   1.295   1.570   0.866
  100SOL     OW  542   0.459   1.152   0.741
  100SOL    HW1  543   0.388   1.125   0.806
  100SOL    HW2  544   0.433   1.124   0.648
  101SOL     OW  545   1.271   1.797   0.591
  101SOL    HW1  546   1.315   1.861   0.527
  101SOL    HW2  547   1.221   1.849   0.661
  102SOL     OW  548   1.032   0.549   0.016
  102SOL    HW1  549   0.991   0.631  -0.023
  102SOL    HW2  550   1.096   0.575   0.089
  103SOL     OW  551   0.078   0.556   1.386
  103SOL    HW1  552   0.170   0.555   1.345
  103SOL    HW2  553   0.072   0.630   1.453
  104SOL     OW  554   0.561   0.222   1.147
  104SOL    HW1  555   0.599   0.138   1.184
  104SOL    HW2  556   0.473   0.241   1.191
  105SOL     OW  557   0.866   0.454   0.642
  105SOL    HW1  558   0.834   0.526   0.580
  105SOL    HW2  559   0.890   0.373   0.589
  106SOL     OW  560   1.017   0.039   0.753
  106SOL    HW1  561   0.945   0.044   0.684
  106SOL    HW2  562   0.993  -0.030   0.822
  107SOL     OW  563   1.429   1.173   0.867
  107SOL    HW1  564   1.374   1.089   0.860
  107SOL    HW2  565   1.455   1.202   0.775
  108SOL     OW  566   1.466   0.590   0.992
  108SOL    HW1  567   1.436   0.495   0.999
  108SOL    HW2  568   1.539   0.606   1.058
  109SOL     OW  569   1.857   0.833   0.377
  109SOL    HW1  570   1.899   0.769   0.441
  109SOL    HW2  571   1.819   0.782   0.299
  110SOL     OW  572   0.488   1.385   0.174
  110SOL    HW1  573   0.401   1.370   0.221
  110SOL    HW2  574   0.471   1.411   0.079
  111SOL     OW  575   1.664   1.280   0.657
  111SOL    HW1  576   1.763   1.288   0.671
  111SOL    HW2  577   1.619   1.364   0.688
  112SOL     OW  578   1.390   0.575   0.078
  112SOL    HW1  579   1.336   0.554   0.159
  112SOL    HW2  580   1.481   0.534   0.087
  113SOL     OW  581   0.527   0.256   0.328
  113SOL    HW1  582   0.554   0.197   0.253
  113SOL    HW2  583   0.527   0.351   0.297
  114SOL     OW  584   1.754   1.223   1.588
  114SOL    HW1  585   1.845   1.184   1.575
  114SOL    HW2  586   1.762   1.319   1.612
  115SOL     OW  587   1.064   1.347   1.340
  115SOL    HW1  588   0.984   1.324   1.395
  115SOL    HW2  589   1.147   1.321   1.389
  116SOL     OW  590   1.592   1.629   1.625
  116SOL    HW1  591   1.619   1.663   1.535
  116SOL    HW2  592   1.671   1.591   1.671
  117SOL     OW  593   1.111   1.195   1.100
  117SOL    HW1  594   1.071   1.239   1.181
  117SOL    HW2  595   1.070   1.232   1.017
  118SOL     OW  596   1.638   1.099   1.079
  118SOL    HW1  597   1.643   1.180   1.138
  118SOL    HW2  598   1.552   1.101   1.028
  119SOL     OW  599   0.915   0.089   1.402
  119SOL    HW1  600   0.940   0.069   1.307
  119SOL    HW2  601   0.987   0.145   1.444
  120SOL     OW  602   0.980   1.116   1.719
  120SOL    HW1  603   0.881   1.122   1.729
  120SOL    HW2  604   1.003   1.036   1.663
  121SOL     OW  605   0.705   1.050   0.368
  121SOL    HW1  606   0.691   1.057   0.467
  121SOL    HW2  607   0.789   0.999   0.350
  122SOL     OW  608   0.410   0.813   1.251
  122SOL    HW1  609   0.496   0.825   1.301
  122SOL    HW2  610   0.368   0.726   1.278
  123SOL     OW  611   1.274   0.386   1.262
  123SOL    HW1  612   1.295   0.460   1.326
  123SOL    HW2  613   1.185   0.403   1.219
  124SOL     OW  614   0.064   1.564   1.331
  124SOL    HW1  615   0.018   1.646   1.297
  124SOL    HW2  616   0.162   1.583   1.340
  125SOL     OW  617   0.367   1.100   0.501
  125SOL    HW1  618   0.360   1.183   0.445
  125SOL    HW2  619   0.371   1.020   0.441
  126SOL     OW  620   0.566   0.537   0.865
  126SOL    HW1  621   0.578   0.603   0.791
  126SOL    HW2  622   0.612   0.571   0.948
  127SOL     OW  623   1.252   1.348   0.388
  127SOL    HW1  624   1.302   1.425   0.428
  127SOL    HW2  625   1.157   1.350   0.420
  128SOL     OW  626   1.272   1.445   1.142
  128SOL    HW1  627   1.319   1.458   1.229
  128SOL    HW2  628   1.206   1.371   1.151
  129SOL     OW  629   1.582   0.639   0.472
  129SOL    HW1  630   1.551   0.700   0.545
  129SOL    HW2  631   1.632   0.691   0.403
  130SOL     OW  632   0.354   1.510   1.329
  130SOL    HW1  633   0.333   1.466   1.242
  130SOL    HW2  634   0.451   1.536   1.332
  131SOL     OW  635   0.402   0.751   1.598
  131SOL    HW1  636   0.470   0.806   1.551
  131SOL    HW2  637   0.442   0.663   1.625
  132SOL     OW  638   1.587   0.779   1.670
  132SOL    HW1  639   1.495   0.817   1.665
  132SOL    HW2  640   1.647   0.826   1.605
  133SOL     OW  641   1.013   0.105   1.770
  133SOL    HW1  642   1.019   0.190   1.718
  133SOL    HW2  643   1.045   0.029   1.713
  134SOL     OW  644   0.504   0.050   1.740
  134SOL    HW1  645   0.462  -0.007   1.670
  134SOL    HW2  646   0.438   0.119   1.772
  135SOL     OW  647   0.573   0.870   1.029
  135SOL    HW1  648   0.617   0.959   1.020
  135SOL    HW2  649   0.510   0.870   1.106
  136SOL     OW  650   1.360   0.862   1.045
  136SOL    HW1  651   1.285   0.862   0.979
  136SOL    HW2  652   1.397   0.770   1.054
  137SOL     OW  653   1.209   0.525   0.275
  137SOL    HW1  654   1.222   0.441   0.329
  137SOL    HW2  655   1.180   0.599   0.335
  138SOL     OW  656   0.307   0.213   1.231
  138SOL    HW1  657   0.284   0.250   1.321
  138SOL    HW2  658   0.277   0.118   1.225
  139SOL     OW  659   0.037   1.310   1.282
  139SOL    HW1  660   0.090   1.261   1.350
  139SOL    HW2  661   0.059   1.408   1.287
  140SOL     OW  662   0.732   0.634   1.064
  140SOL    HW1  663   0.791   0.608   0.988
  140SOL    HW2  664   0.704   0.730   1.053
  141SOL     OW  665   1.728   0.935   1.854
  141SOL    HW1  666   1.682   0.928   1.765
  141SOL    HW2  667   1.666   0.979   1.920
  142SOL     OW  668   0.307   0.063   0.618
  142SOL    HW1  669   0.296   0.157   0.651
  142SOL    HW2  670   0.302   0.000   0.695
  143SOL     OW  671   1.622   0.367   0.374
  143SOL    HW1  672   1.624   0.291   0.438
  143SOL    HW2  673   1.574   0.444   0.414
  144SOL     OW  674   1.023   0.766   0.966
  144SOL    HW1  675   1.038   0.787   1.062
  144SOL    HW2  676   0.993   0.671   0.957
  145SOL     OW  677   0.980   1.573   1.700
  145SOL    HW1  678   0.960   1.617   1.612
  145SOL    HW2  679   1.019   1.482   1.684
  146SOL     OW  680   1.859   1.518   1.605
  146SOL    HW1  681   1.873   1.545   1.510
  146SOL    HW2  682   1.942   1.540   1.658
  147SOL     OW  683   0.350   0.898   1.804
  147SOL    HW1  684   0.426   0.942   1.852
  147SOL    HW2  685   0.385   0.851   1.722
  148SOL     OW  686   1.540   0.274   0.125
  148SOL    HW1  687   1.479   0.199   0.148
  148SOL    HW2  688   1.562   0.326   0.208
  149SOL     OW  689   1.303   0.838   0.042
  149SOL    HW1  690   1.337   0.745   0.057
  149SOL    HW2  691   1.321   0.865  -0.053
  150SOL     OW  692   1.068   1.333   0.849
  150SOL    HW1  693   1.075   1.249   0.794
  150SOL    HW2  694   1.130   1.402   0.813
  151SOL     OW  695   0.319   0.810   0.949
  151SOL    HW1  696   0.412   0.846   0.954
  151SOL    HW2  697   0.313   0.725   1.001
  152SOL     OW  698   0.339   0.509   1.006
  152SOL    HW1  699   0.287   0.426   0.989
  152SOL    HW2  700   0.416   0.514   0.942
  153SOL     OW  701   1.138   0.380   1.678
  153SOL    HW1  702   1.093   0.443   1.742
  153SOL    HW2  703   1.231   0.411   1.661
  154SOL     OW  704   1.160   0.207   1.477
  154SOL    HW1  705   1.160   0.271   1.554
  154SOL    HW2  706   1.188   0.255   1.394
  155SOL     OW  707   0.008   1.326   0.200
  155SOL    HW1  708  -0.085   1.347   0.169
  155SOL    HW2  709   0.018   1.227   0.213
  156SOL     OW  710   0.088   1.801   0.927
  156SOL    HW1  711   0.046   1.715   0.900
  156SOL    HW2  712   0.182   1.804   0.893
  157SOL     OW  713   0.504   1.568   0.910
  157SOL    HW1  714   0.570   1.642   0.919
  157SOL    HW2  715   0.548   1.489   0.868
  158SOL     OW  716   1.002   0.796   1.238
  158SOL    HW1  717   1.043   0.764   1.324
  158SOL    HW2  718   0.906   0.769   1.235
  159SOL     OW  719   0.040   0.544   1.114
  159SOL    HW1  720   0.125   0.511   1.073
  159SOL    HW2  721   0.053   0.559   1.212
  160SOL     OW  722   0.189   0.520   1.722
  160SOL    HW1  723   0.248   0.480   1.652
  160SOL    HW2  724   0.131   0.591   1.681
  161SOL     OW  725   1.369   0.950   1.660
  161SOL    HW1  726   1.408   1.039   1.680
  161SOL    HW2  727   1.379   0.930   1.563
  162SOL     OW  728   0.815   0.572   0.325
  162SOL    HW1  729   0.822   0.483   0.279
  162SOL    HW2  730   0.721   0.606   0.317
  163SOL     OW  731   1.657   0.604   1.206
  163SOL    HW1  732   1.619   0.535   1.268
  163SOL    HW2  733   1.739   0.568   1.162
  164SOL     OW  734   0.252   1.564   1.744
  164SOL    HW1  735   0.222   1.621   1.820
  164SOL    HW2  736   0.245   1.467   1.770
  165SOL     OW  737   0.671   0.464   1.269
  165SOL    HW1  738   0.637   0.375   1.239
  165SOL    HW2  739   0.697   0.518   1.189
  166SOL     OW  740   0.930   1.678   1.465
  166SOL    HW1  741   0.906   1.660   1.370
  166SOL    HW2  742   0.960   1.772   1.475
  167SOL     OW  743   0.473   0.500   0.191
  167SOL    HW1  744   0.534   0.580   0.195
  167SOL    HW2  745   0.378   0.531   0.198
  168SOL     OW  746   0.159   1.137   1.466
  168SOL    HW1  747   0.181   1.076   1.542
  168SOL    HW2  748   0.169   1.088   1.380
  169SOL     OW  749   1.347   1.059   1.234
  169SOL    HW1  750   1.371   0.996   1.160
  169SOL    HW2  751   1.257   1.099   1.216
  170SOL     OW  752   1.302   0.855   0.309
  170SOL    HW1  753   1.216   0.824   0.351
  170SOL    HW2  754   1.298   0.841   0.210
  171SOL     OW  755   1.759   1.747   1.154
  171SOL    HW1  756   1.820   1.777   1.081
  171SOL    HW2  757   1.721   1.658   1.132
  172SOL     OW  758   1.252   1.731   1.128
  172SOL    HW1  759   1.336   1.736   1.074
  172SOL    HW2  760   1.229   1.635   1.146
  173SOL     OW  761   0.083   1.258   1.022
  173SOL    HW1  762   0.078   1.257   1.122
  173SOL    HW2  763   0.000   1.217   0.984
  174SOL     OW  764   0.688   1.662   1.716
  174SOL    HW1  765   0.632   1.743   1.725
  174SOL    HW2  766   0.740   1.666   1.630
  175SOL     OW  767   0.903   0.086   0.133
  175SOL    HW1  768   0.954   0.087   0.047
  175SOL    HW2  769   0.959   0.044   0.204
  176SOL     OW  770   1.726   0.135   0.523
  176SOL    HW1  771   1.799   0.118   0.456
  176SOL    HW2  772   1.695   0.048   0.561
  177SOL     OW  773   1.388   1.573   0.477
  177SOL    HW1  774   1.455   1.585   0.403
  177SOL    HW2  775   1.348   1.662   0.500
  178SOL     OW  776   0.130   1.794   1.851
  178SOL    HW1  777   0.089   1.720   1.904
  178SOL    HW2  778   0.194   1.845   1.909
  179SOL     OW  779   1.280   0.927   0.672
  179SOL    HW1  780   1.340   0.846   0.674
  179SOL    HW2  781   1.320   0.996   0.612
  180SOL     OW  782   0.830   1.273   1.422
  180SOL    HW1  783   0.825   1.306   1.517
  180SOL    HW2  784   0.744   1.292   1.376
  181SOL     OW  785   0.672   1.616   0.154
  181SOL    HW1  786   0.681   1.626   0.055
  181SOL    HW2  787   0.632   1.527   0.175
  182SOL     OW  788   1.650   1.720   1.394
  182SOL    HW1  789   1.703   1.730   1.310
  182SOL    HW2  790   1.623   1.810   1.428
  183SOL     OW  791   1.841   0.175   0.963
  183SOL    HW1  792   1.880   0.090   0.927
  183SOL    HW2  793   1.743   0.177   0.944
  184SOL     OW  794   0.263   0.326   0.720
  184SOL    HW1  795   0.184   0.377   0.686
  184SOL    HW2  796   0.254   0.311   0.818
  185SOL     OW  797   1.194   1.612   0.031
  185SOL    HW1  798   1.200   1.519   0.068
  185SOL    HW2  799   1.135   1.612  -0.049
  186SOL     OW  800   0.822   1.002   1.372
  186SOL    HW1  801   0.862   1.001   1.280
  186SOL    HW2  802   0.832   1.094   1.412
  187SOL     OW  803   0.916   0.910   0.291
  187SOL    HW1  804   0.979   0.948   0.223
  187SOL    HW2  805   0.956   0.827   0.330
  188SOL     OW  806   1.504   1.607   0.044
  188SOL    HW1  807   1.412   1.644   0.051
  188SOL    HW2  808   1.542   1.627  -0.046
  189SOL     OW  809   0.372   1.288   1.490
  189SOL    HW1  810   0.359   1.381   1.456
  189SOL    HW2  811   0.288   1.236   1.477
  190SOL     OW  812   1.614   1.292   1.289
  190SOL    HW1  813   1.674   1.295   1.369
  190SOL    HW2  814   1.539   1.356   1.302
  191SOL     OW  815   1.039   1.098   0.696
  191SOL    HW1  816   0.969   1.051   0.750
  191SOL    HW2  817   1.098   1.030   0.653
  192SOL     OW  818   1.014   0.236   0.971
  192SOL    HW1  819   1.006   0.200   0.878
  192SOL    HW2  820   1.012   0.160   1.036
  193SOL     OW  821   0.590   1.487   0.491
  193SOL    HW1  822   0.632   1.429   0.421
  193SOL    HW2  823   0.546   1.566   0.447
  194SOL     OW  824   1.709   0.385   1.381
  194SOL    HW1  825   1.782   0.454   1.385
  194SOL    HW2  826   1.737   0.310   1.322
  195SOL     OW  827   0.255   1.348   0.290
  195SOL    HW1  828   0.159   1.349   0.263
  195SOL    HW2  829   0.267   1.401   0.374
  196SOL     OW  830   0.105   1.013   1.726
  196SOL    HW1  831   0.028   0.980   1.780
  196SOL    HW2  832   0.190   0.983   1.768
  197SOL     OW  833   0.672   0.203   1.489
  197SOL    HW1  834   0.762   0.187   1.449
  197SOL    HW2  835   0.680   0.208   1.588
  198SOL     OW  836   0.075   0.345   0.033
  198SOL    HW1  837  -0.017   0.317   0.004
  198SOL    HW2  838   0.106   0.422  -0.023
  199SOL     OW  839   1.440   0.856   1.398
  199SOL    HW1  840   1.383   0.908   1.335
  199SOL    HW2  841   1.536   0.868   1.374
  200SOL     OW  842   0.072   0.166   0.318
  200SOL    HW1  843   0.055   0.249   0.264
  200SOL    HW2  844   0.162   0.129   0.296
  201SOL     OW  845   1.183   1.335   0.119
  201SOL    HW1  846   1.084   1.324   0.121
  201SOL    HW2  847   1.217   1.350   0.212
  202SOL     OW  848   0.613   0.842   1.431
  202SOL    HW1  849   0.669   0.923   1.414
  202SOL    HW2  850   0.672   0.762   1.434
  203SOL     OW  851   1.493   1.767   0.959
  203SOL    HW1  852   1.526   1.831   0.890
  203SOL    HW2  853   1.559   1.761   1.034
  204SOL     OW  854   0.716   0.565   1.708
  204SOL    HW1  855   0.735   0.630   1.782
  204SOL    HW2  856   0.776   0.485   1.717
  205SOL     OW  857   1.450   1.220   1.633
  205SOL    HW1  858   1.441   1.210   1.732
  205SOL    HW2  859   1.546   1.213   1.607
  206SOL     OW  860   0.390   1.741   1.560
  206SOL    HW1  861   0.299   1.782   1.558
  206SOL    HW2  862   0.383   1.647   1.592
  207SOL     OW  863   1.674   0.883   1.254
  207SOL    HW1  864   1.647   0.794   1.217
  207SOL    HW2  865   1.675   0.951   1.181
  208SOL     OW  866   1.225   0.325   0.449
  208SOL    HW1  867   1.290   0.251   0.438
  208SOL    HW2  868   1.245   0.375   0.533
  209SOL     OW  869   0.594   0.745   0.652
  209SOL    HW1  870   0.644   0.830   0.633
  209SOL    HW2  871   0.506   0.747   0.604
  210SOL     OW  872   1.777   0.342   1.642
  210SOL    HW1  873   1.760   0.373   1.548
  210SOL    HW2  874   1.693   0.305   1.680
  211SOL     OW  875   1.730   0.934   1.517
  211SOL    HW1  876   1.768   1.025   1.532
  211SOL    HW2  877   1.722   0.917   1.418
  212SOL     OW  878   0.859   1.374   0.016
  212SOL    HW1  879   0.813   1.389   0.104
  212SOL    HW2  880   0.903   1.459  -0.014
  213SOL     OW  881   0.661   1.790   0.953
  213SOL    HW1  882   0.615   1.878   0.940
  213SOL    HW2  883   0.760   1.802   0.946
  214SOL     OW  884   0.859   0.956   0.861
  214SOL    HW1  885   0.913   0.887   0.909
  214SOL    HW2  886   0.827   1.025   0.927
  215SOL     OW  887   1.083   0.984   0.087
  215SOL    HW1  888   1.060   1.037   0.005
  215SOL    HW2  889   1.164   0.928   0.068
  216SOL     OW  890   1.861   1.569   0.851
  216SOL    HW1  891   1.790   1.557   0.781
  216SOL    HW2  892   1.862   1.490   0.911
  217SOL     OW  893   0.221   1.314   1.844
  217SOL    HW1  894   0.156   1.241   1.823
  217SOL    HW2  895   0.225   1.328   1.942
  218SOL     OW  896   0.079   1.240   0.653
  218SOL    HW1  897   0.078   1.193   0.741
  218SOL    HW2  898   0.161   1.212   0.602
  219SOL     OW  899   0.672   1.391   1.624
  219SOL    HW1  900   0.594   1.341   1.662
  219SOL    HW2  901   0.669   1.486   1.655
  220SOL     OW  902   1.824   0.192   1.227
  220SOL    HW1  903   1.820   0.102   1.271
  220SOL    HW2  904   1.827   0.181   1.128
  221SOL     OW  905   0.428   0.424   0.520
  221SOL    HW1  906   0.458   0.352   0.458
  221SOL    HW2  907   0.389   0.384   0.603
  222SOL     OW  908   1.705   1.487   1.104
  222SOL    HW1  909   1.612   1.462   1.077
  222SOL    HW2  910   1.731   1.437   1.186
  223SOL     OW  911   0.317   0.547   1.280
  223SOL    HW1  912   0.355   0.488   1.352
  223SOL    HW2  913   0.357   0.521   1.192
  224SOL     OW  914   0.812   1.586   0.687
  224SOL    HW1  915   0.844   1.596   0.593
  224SOL    HW2  916   0.733   1.524   0.689
  225SOL     OW  917   1.424   0.214   1.112
  225SOL    HW1  918   1.476   0.149   1.167
  225SOL    HW2  919   1.375   0.277   1.173
  226SOL     OW  920   1.001   0.034   1.154
  226SOL    HW1  921   0.938  -0.038   1.123
  226SOL    HW2  922   1.094  -0.002   1.154
  227SOL     OW  923   0.770   1.330   0.301
  227SOL    HW1  924   0.724   1.243   0.318
  227SOL    HW2  925   0.861   1.327   0.342
  228SOL     OW  926   0.618   1.567   1.284
  228SOL    HW1  927   0.613   1.649   1.341
  228SOL    HW2  928   0.707   1.564   1.239
  229SOL     OW  929   1.352   0.052   0.168
  229SOL    HW1  930   1.387   0.011   0.084
  229SOL    HW2  931   1.262   0.014   0.188
  230SOL     OW  932   1.300   0.453   0.691
  230SOL    HW1  933   1.241   0.533   0.695
  230SOL    HW2  934   1.315   0.418   0.784
  231SOL     OW  935   1.593   0.221   0.882
  231SOL    HW1  936   1.509   0.220   0.936
  231SOL    HW2  937   1.595   0.304   0.826
  232SOL     OW  938   0.039   1.077   0.300
  232SOL    HW1  939   0.138   1.066   0.291
  232SOL    HW2  940  -0.001   0.991   0.332
  233SOL     OW  941   0.875   1.646   0.337
  233SOL    HW1  942   0.798   1.611   0.283
  233SOL    HW2  943   0.843   1.717   0.399
  234SOL     OW  944   0.230   0.628   1.975
  234SOL    HW1  945   0.137   0.626   2.012
  234SOL    HW2  946   0.231   0.589   1.883
  235SOL     OW  947   0.225   0.275   2.858
  235SOL    HW1  948   0.260   0.258   2.950
  235SOL    HW2  949   0.137   0.230   2.846
  236SOL     OW  950   0.019   0.368   2.509
  236SOL    HW1  951  -0.063   0.411   2.548
  236SOL    HW2  952  -0.009   0.295   2.446
  237SOL     OW  953   0.569   1.275   3.027
  237SOL    HW1  954   0.476   1.268   2.990
  237SOL    HW2  955   0.580   1.364   3.071
  238SOL     OW  956   1.555   1.511   2.565
  238SOL    HW1  957   1.498   1.495   2.646
  238SOL    HW2  958   1.496   1.521   2.485
  239SOL     OW  959   1.135   0.703   2.579
  239SOL    HW1  960   1.192   0.781   2.554
  239SOL    HW2  961   1.075   0.729   2.655
  240SOL     OW  962   1.755   0.607   2.093
  240SOL    HW1  963   1.743   0.594   1.994
  240SOL    HW2  964   1.725   0.526   2.142
  241SOL     OW  965   0.768   1.144   2.885
  241SOL    HW1  966   0.690   1.161   2.945
  241SOL    HW2  967   0.802   1.231   2.849
  242SOL     OW  968   0.685   1.012   2.527
  242SOL    HW1  969   0.754   0.996   2.597
  242SOL    HW2  970   0.612   1.069   2.565
  243SOL     OW  971   0.335   1.435   2.923
  243SOL    HW1  972   0.257   1.404   2.870
  243SOL    HW2  973   0.393   1.493   2.866
  244SOL     OW  974   1.460   1.505   3.201
  244SOL    HW1  975   1.484   1.599   3.227
  244SOL    HW2  976   1.444   1.451   3.283
  245SOL     OW  977   0.438   0.392   3.361
  245SOL    HW1  978   0.520   0.336   3.370
  245SOL    HW2  979   0.357   0.334   3.365
  246SOL     OW  980   1.603   0.447   2.599
  246SOL    HW1  981   1.529   0.493   2.549
  246SOL    HW2  982   1.654   0.515   2.652
  247SOL     OW  983   0.231   1.713   2.345
  247SOL    HW1  984   0.265   1.790   2.399
  247SOL    HW2  985   0.275   1.713   2.255
  248SOL     OW  986   0.230   1.434   2.400
  248SOL    HW1  987   0.204   1.530   2.400
  248SOL    HW2  988   0.159   1.380   2.445
  249SOL     OW  989   0.240   1.091   2.748
  249SOL    HW1  990   0.254   1.007   2.800
  249SOL    HW2  991   0.185   1.155   2.803
  250SOL     OW  992   0.620   1.786   3.301
  250SOL    HW1  993   0.528   1.769   3.336
  250SOL    HW2  994   0.648   1.878   3.327
  251SOL     OW  995   0.606   0.964   1.985
  251SOL    HW1  996   0.613   1.048   1.931
  251SOL    HW2  997   0.652   0.977   2.073
  252SOL     OW  998   1.594   0.114   3.342
  252SOL    HW1  999   1.576   0.181   3.270
  252SOL    HW2 1000   1.591   0.160   3.431
  253SOL     OW 1001   0.122   0.643   2.425
  253SOL    HW1 1002   0.077   0.555   2.442
  253SOL    HW2 1003   0.121   0.697   2.509
  254SOL     OW 1004   1.842   1.767   2.221
  254SOL    HW1 1005   1.896   1.738   2.301
  254SOL    HW2 1006   1.872   1.857   2.192
  255SOL     OW 1007   0.027   1.596   1.979
  255SOL    HW1 1008   0.008   1.500   2.000
  255SOL    HW2 1009  -0.006   1.654   2.054
  256SOL     OW 1010   1.689   0.922   2.474
  256SOL    HW1 1011   1.784   0.893   2.482
  256SOL    HW2 1012   1.681   0.987   2.399
  257SOL     OW 1013   1.641   1.108   2.294
  257SOL    HW1 1014   1.727   1.110   2.242
  257SOL    HW2 1015   1.655   1.155   2.382
  258SOL     OW 1016   0.613   1.365   2.588
  258SOL    HW1 1017   0.564   1.278   2.597
  258SOL    HW2 1018   0.590   1.408   2.501
  259SOL     OW 1019   1.293   1.228   3.285
  259SOL    HW1 1020   1.330   1.155   3.227
  259SOL    HW2 1021   1.345   1.233   3.370
  260SOL     OW 1022   0.809   0.004   2.364
  260SOL    HW1 1023   0.849   0.095   2.355
  260SOL    HW2 1024   0.709   0.012   2.370
  261SOL     OW 1025   0.197   0.976   3.126
  261SOL    HW1 1026   0.286   0.931   3.112
  261SOL    HW2 1027   0.124   0.911   3.107
  262SOL     OW 1028   1.525   0.999   2.052
  262SOL    HW1 1029   1.462   0.923   2.065
  262SOL    HW2 1030   1.573   1.017   2.138
  263SOL     OW 1031   1.466   1.417   2.815
  263SOL    HW1 1032   1.407   1.423   2.895
  263SOL    HW2 1033   1.451   1.329   2.769
  264SOL     OW 1034   1.667   1.714   2.434
  264SOL    HW1 1035   1.626   1.691   2.346
  264SOL    HW2 1036   1.649   1.640   2.499
  265SOL     OW 1037   0.598   0.729   2.132
  265SOL    HW1 1038   0.622   0.798   2.064
  265SOL    HW2 1039   0.520   0.762   2.186
  266SOL     OW 1040   1.281   0.345   2.806
  266SOL    HW1 1041   1.195   0.295   2.793
  266SOL    HW2 1042   1.343   0.291   2.862
  267SOL     OW 1043   1.576   1.662   2.169
  267SOL    HW1 1044   1.665   1.708   2.172
  267SOL    HW2 1045   1.555   1.638   2.074
  268SOL     OW 1046   0.807   0.605   3.327
  268SOL    HW1 1047   0.760   0.602   3.416
  268SOL    HW2 1048   0.756   0.550   3.261
  269SOL     OW 1049   0.973   0.890   3.434
  269SOL    HW1 1050   1.019   0.806   3.405
  269SOL    HW2 1051   0.917   0.924   3.359
  270SOL     OW 1052   0.991   0.410   3.104
  270SOL    HW1 1053   0.914   0.444   3.158
  270SOL    HW2 1054   0.957   0.359   3.025
  271SOL     OW 1055   1.041   0.701   2.291
  271SOL    HW1 1056   1.067   0.697   2.387
  271SOL    HW2 1057   0.956   0.650   2.277
  272SOL     OW 1058   0.076   0.811   2.651
  272SOL    HW1 1059   0.175   0.799   2.660
  272SOL    HW2 1060   0.052   0.906   2.672
  273SOL     OW 1061   0.865   0.348   2.057
  273SOL    HW1 1062   0.924   0.411   2.008
  273SOL    HW2 1063   0.884   0.254   2.028
  274SOL     OW 1064   1.362   1.144   2.407
  274SOL    HW1 1065   1.445   1.115   2.359
  274SOL    HW2 1066   1.313   1.211   2.351
  275SOL     OW 1067   0.550   0.196   2.747
  275SOL    HW1 1068   0.545   0.191   2.847
  275SOL    HW2 1069   0.552   0.292   2.718
  276SOL     OW 1070   1.008   1.456   2.339
  276SOL    HW1 1071   0.962   1.528   2.287
  276SOL    HW2 1072   1.004   1.476   2.437
  277SOL     OW 1073   0.351   1.801   2.715
  277SOL    HW1 1074   0.401   1.715   2.721
  277SOL    HW2 1075   0.416   1.878   2.712
  278SOL     OW 1076   1.795   1.066   2.735
  278SOL    HW1 1077   1.733   1.051   2.659
  278SOL    HW2 1078   1.743   1.077   2.820
  279SOL     OW 1079   1.227   1.550   3.368
  279SOL    HW1 1080   1.233   1.473   3.432
  279SOL    HW2 1081   1.175   1.524   3.288
  280SOL     OW 1082   0.321   0.943   2.104
  280SOL    HW1 1083   0.403   0.982   2.062
  280SOL    HW2 1084   0.294   0.861   2.055
  281SOL     OW 1085   1.458   0.735   2.590
  281SOL    HW1 1086   1.453   0.670   2.665
  281SOL    HW2 1087   1.538   0.794   2.603
  282SOL     OW 1088   1.111   1.776   2.099
  282SOL    HW1 1089   1.051   1.714   2.149
  282SOL    HW2 1090   1.142   1.732   2.014
  283SOL     OW 1091   0.202   0.285   3.360
  283SOL    HW1 1092   0.122   0.345   3.347
  283SOL    HW2 1093   0.192   0.236   3.446
  284SOL     OW 1094   1.632   1.377   1.943
  284SOL    HW1 1095   1.600   1.471   1.933
  284SOL    HW2 1096   1.556   1.314   1.931
  285SOL     OW 1097   0.464   1.743   2.185
  285SOL    HW1 1098   0.497   1.782   2.271
  285SOL    HW2 1099   0.540   1.736   2.120
  286SOL     OW 1100   1.400   0.107   2.288
  286SOL    HW1 1101   1.376   0.070   2.198
  286SOL    HW2 1102   1.499   0.123   2.292
  287SOL     OW 1103   0.249   1.785   3.103
  287SOL    HW1 1104   0.306   1.720   3.153
  287SOL    HW2 1105   0.233   1.752   3.010
  288SOL     OW 1106   0.940   1.698   2.766
  288SOL    HW1 1107   1.020   1.641   2.787
  288SOL    HW2 1108   0.891   1.658   2.689
  289SOL     OW 1109   0.382   0.700   2.342
  289SOL    HW1 1110   0.427   0.610   2.339
  289SOL    HW2 1111   0.288   0.689   2.375
  290SOL     OW 1112   0.614   0.122   1.979
  290SOL    HW1 1113   0.712   0.100   1.986
  290SOL    HW2 1114   0.583   0.105   1.886
  291SOL     OW 1115   0.888   1.514   3.057
  291SOL    HW1 1116   0.865   1.489   2.963
  291SOL    HW2 1117   0.949   1.445   3.096
  292SOL     OW 1118   1.351   0.590   3.295
  292SOL    HW1 1119   1.379   0.547   3.380
  292SOL    HW2 1120   1.376   0.686   3.296
  293SOL     OW 1121   0.803   1.402   2.786
  293SOL    HW1 1122   0.893   1.416   2.744
  293SOL    HW2 1123   0.732   1.404   2.715
  294SOL     OW 1124   0.922   0.503   2.761
  294SOL    HW1 1125   0.897   0.494   2.665
  294SOL    HW2 1126   0.970   0.421   2.792
  295SOL     OW 1127   0.539   0.064   2.374
  295SOL    HW1 1128   0.458   0.065   2.432
  295SOL    HW2 1129   0.542   0.147   2.319
  296SOL     OW 1130   1.434   1.188   1.903
  296SOL    HW1 1131   1.466   1.112   1.960
  296SOL    HW2 1132   1.342   1.215   1.933
  297SOL     OW 1133   0.297   0.035   2.033
  297SOL    HW1 1134   0.346   0.119   2.012
  297SOL    HW2 1135   0.359  -0.030   2.078
  298SOL     OW 1136   0.935   0.236   2.342
  298SOL    HW1 1137   0.887   0.277   2.264
  298SOL    HW2 1138   1.034   0.234   2.323
  299SOL     OW 1139   1.076   0.683   3.326
  299SOL    HW1 1140   0.996   0.622   3.329
  299SOL    HW2 1141   1.157   0.630   3.302
  300SOL     OW 1142   1.227   1.570   2.655
  300SOL    HW1 1143   1.248   1.644   2.590
  300SOL    HW2 1144   1.295   1.570   2.728
  301SOL     OW 1145   0.459   1.152   2.603
  301SOL    HW1 1146   0.388   1.125   2.668
  301SOL    HW2 1147   0.433   1.124   2.510
  302SOL     OW 1148   1.271   1.797   2.453
  302SOL    HW1 1149   1.315   1.861   2.389
  302SOL    HW2 1150   1.221   1.849   2.523
  303SOL     OW 1151   1.032   0.549   1.878
  303SOL    HW1 1152   0.991   0.631   1.839
  303SOL    HW2 1153   1.096   0.575   1.951
  304SOL     OW 1154   0.078   0.556   3.248
  304SOL    HW1 1155   0.170   0.555   3.207
  304SOL    HW2 1156   0.072   0.630   3.315
  305SOL     OW 1157   0.561   0.222   3.009
  305SOL    HW1 1158   0.599   0.138   3.046
  305SOL    HW2 1159   0.473   0.241   3.053
  306SOL     OW 1160   0.866   0.454   2.504
  306SOL    HW1 1161   0.834   0.526   2.442
  306SOL    HW2 1162   0.890   0.373   2.451
  307SOL     OW 1163   1.017   0.039   2.615
  307SOL    HW1 1164   0.945   0.044   2.546
  307SOL    HW2 1165   0.993  -0.030   2.684
  308SOL     OW 1166   1.429   1.173   2.729
  308SOL    HW1 1167   1.374   1.089   2.722
  308SOL    HW2 1168   1.455   1.202   2.637
  309SOL     OW 1169   1.466   0.590   2.854
  309SOL    HW1 1170   1.436   0.495   2.861
  309SOL    HW2 1171   1.539   0.606   2.920
  310SOL     OW 1172   1.857   0.833   2.239
  310SOL    HW1 1173   1.899   0.769   2.303
  310SOL    HW2 1174   1.819   0.782   2.161
  311SOL     OW 1175   0.488   1.385   2.036
  311SOL    HW1 1176   0.401   1.370   2.083
  311SOL    HW2 1177   0.471   1.411   1.941
  312SOL     OW 1178   1.664   1.280   2.519
  312SOL    HW1 1179   1.763   1.288   2.533
  312SOL    HW2 1180   1.619   1.364   2.550
  313SOL     OW 1181   1.390   0.575   1.940
  313SOL    HW1 1182   1.336   0.554   2.021
  313SOL    HW2 1183   1.481   0.534   1.949
  314SOL     OW 1184   0.527   0.256   2.190
  314SOL    HW1 1185   0.554   0.197   2.115
  314SOL    HW2 1186   0.527   0.351   2.159
  315SOL     OW 1187   1.064   1.347   3.202
  315SOL    HW1 1188   0.984   1.324   3.257
  315SOL    HW2 1189   1.147   1.321   3.251
  316SOL     OW 1190   1.111   1.195   2.962
  316SOL    HW1 1191   1.071   1.239   3.043
  316SOL    HW2 1192   1.070   1.232   2.879
  317SOL     OW 1193   1.638   1.099   2.941
  317SOL    HW1 1194   1.643   1.180   3.000
  317SOL    HW2 1195   1.552   1.101   2.890
  318SOL     OW 1196   0.915   0.089   3.264
  318SOL    HW1 1197   0.940   0.069   3.169
  318SOL    HW2 1198   0.987   0.145   3.306
  319SOL     OW 1199   0.705   1.050   2.230
  319SOL    HW1 1200   0.691   1.057   2.329
  319SOL    HW2 1201   0.789   0.999   2.212
  320SOL     OW 1202   0.410   0.813   3.113
  320SOL    HW1 1203   0.496   0.825   3.163
  320SOL    HW2 1204   0.368   0.726   3.140
  321SOL     OW 1205   1.274   0.386   3.124
  321SOL    HW1 1206   1.295   0.460   3.188
  321SOL    HW2 1207   1.185   0.403   3.081
  322SOL     OW 1208   0.064   1.564   3.193
  322SOL    HW1 1209   0.018   1.646   3.159
  322SOL    HW2 1210   0.162   1.583   3.202
  323SOL     OW 1211   0.367   1.100   2.363
  323SOL    HW1 1212   0.360   1.183   2.307
  323SOL    HW2 1213   0.371   1.020   2.303
  324SOL     OW 1214   0.566   0.537   2.727
  324SOL    HW1 1215   0.578   0.603   2.653
  324SOL    HW2 1216   0.612   0.571   2.810
  325SOL     OW 1217   1.252   1.348   2.250
  325SOL    HW1 1218   1.302   1.425   2.290
  325SOL    HW2 1219   1.157   1.350   2.282
  326SOL     OW 1220   1.272   1.445   3.004
  326SOL    HW1 1221   1.319   1.458   3.091
  326SOL    HW2 1222   1.206   1.371   3.013
  327SOL     OW 1223   1.582   0.639   2.334
  327SOL    HW1 1224   1.551   0.700   2.407
  327SOL    HW2 1225   1.632   0.691   2.265
  328SOL     OW 1226   0.354   1.510   3.191
  328SOL    HW1 1227   0.333   1.466   3.104
  328SOL    HW2 1228   0.451   1.536   3.194
  329SOL     OW 1229   0.573   0.870   2.891
  329SOL    HW1 1230   0.617   0.959   2.882
  329SOL    HW2 1231   0.510   0.870   2.968
  330SOL     OW 1232   1.360   0.862   2.907
  330SOL    HW1 1233   1.285   0.862   2.841
  330SOL    HW2 1234   1.397   0.770   2.916
  331SOL     OW 1235   1.209   0.525   2.137
  331SOL    HW1 1236   1.222   0.441   2.191
  331SOL    HW2 1237   1.180   0.599   2.197
  332SOL     OW 1238   0.307   0.213   3.093
  332SOL    HW1 1239   0.284   0.250   3.183
  332SOL    HW2 1240   0.277   0.118   3.087
  333SOL     OW 1241   0.037   1.310   3.144
  333SOL    HW1 1242   0.090   1.261   3.212
  333SOL    HW2 1243   0.059   1.408   3.149
  334SOL     OW 1244   0.732   0.634   2.926
  334SOL    HW1 1245   0.791   0.608   2.850
  334SOL    HW2 1246   0.704   0.730   2.915
  335SOL     OW 1247   0.307   0.063   2.480
  335SOL    HW1 1248   0.296   0.157   2.513
  335SOL    HW2 1249   0.302   0.000   2.557
  336SOL     OW 1250   1.622   0.367   2.236
  336SOL    HW1 1251   1.624   0.291   2.300
  336SOL    HW2 1252   1.574   0.444   2.276
  337SOL     OW 1253   1.023   0.766   2.828
  337SOL    HW1 1254   1.038   0.787   2.924
  337SOL    HW2 1255   0.993   0.671   2.819
  338SOL     OW 1256   1.540   0.274   1.987
  338SOL    HW1 1257   1.479   0.199   2.010
  338SOL    HW2 1258   1.562   0.326   2.070
  339SOL     OW 1259   1.303   0.838   1.904
  339SOL    HW1 1260   1.337   0.745   1.919
  339SOL    HW2 1261   1.321   0.865   1.809
  340SOL     OW 1262   1.068   1.333   2.711
  340SOL    HW1 1263   1.075   1.249   2.656
  340SOL    HW2 1264   1.130   1.402   2.675
  341SOL     OW 1265   0.319   0.810   2.811
  341SOL    HW1 1266   0.412   0.846   2.816
  341SOL    HW2 1267   0.313   0.725   2.863
  342SOL     OW 1268   0.339   0.509   2.868
  342SOL    HW1 1269   0.287   0.426   2.851
  342SOL    HW2 1270   0.416   0.514   2.804
  343SOL     OW 1271   1.160   0.207   3.339
  343SOL    HW1 1272   1.160   0.271   3.416
  343SOL    HW2 1273   1.188   0.255   3.256
  344SOL     OW 1274   0.008   1.326   2.062
  344SOL    HW1 1275  -0.085   1.347   2.031
  344SOL    HW2 1276   0.018   1.227   2.075
  345SOL     OW 1277   0.088   1.801   2.789
  345SOL    HW1 1278   0.046   1.715   2.762
  345SOL    HW2 1279   0.182   1.804   2.755
  346SOL     OW 1280   0.504   1.568   2.772
  346SOL    HW1 1281   0.570   1.642   2.781
  346SOL    HW2 1282   0.548   1.489   2.730
  347SOL     OW 1283   1.002   0.796   3.100
  347SOL    HW1 1284   1.043   0.764   3.186
  347SOL    HW2 1285   0.906   0.769   3.097
  348SOL     OW 1286   0.040   0.544   2.976
  348SOL    HW1 1287   0.125   0.511   2.935
  348SOL    HW2 1288   0.053   0.559   3.074
  349SOL     OW 1289   0.815   0.572   2.187
  349SOL    HW1 1290   0.822   0.483   2.141
  349SOL    HW2 1291   0.721   0.606   2.179
  350SOL     OW 1292   1.657   0.604   3.068
  350SOL    HW1 1293   1.619   0.535   3.130
  350SOL    HW2 1294   1.739   0.568   3.024
  351SOL     OW 1295   0.671   0.464   3.131
  351SOL    HW1 1296   0.637   0.375   3.101
  351SOL    HW2 1297   0.697   0.518   3.051
  352SOL     OW 1298   0.930   1.678   3.327
  352SOL    HW1 1299   0.906   1.660   3.232
  352SOL    HW2 1300   0.960   1.772   3.337
  353SOL     OW 1301   0.473   0.500   2.053
  353SOL    HW1 1302   0.534   0.580   2.057
  353SOL    HW2 1303   0.378   0.531   2.060
  354SOL     OW 1304   0.159   1.137   3.328
  354SOL    HW1 1305   0.181   1.076   3.404
  354SOL    HW2 1306   0.169   1.088   3.242
  355SOL     OW 1307   1.347   1.059   3.096
  355SOL    HW1 1308   1.371   0.996   3.022
  355SOL    HW2 1309   1.257   1.099   3.078
  356SOL     OW 1310   1.302   0.855   2.171
  356SOL    HW1 1311   1.216   0.824   2.213
  356SOL    HW2 1312   1.298   0.841   2.072
  357SOL     OW 1313   1.759   1.747   3.016
  357SOL    HW1 1314   1.820   1.777   2.943
  357SOL    HW2 1315   1.721   1.658   2.994
  358SOL     OW 1316   1.252   1.731   2.990
  358SOL    HW1 1317   1.336   1.736   2.936
  358SOL    HW2 1318   1.229   1.635   3.008
  359SOL     OW 1319   0.083   1.258   2.884
  359SOL    HW1 1320   0.078   1.257   2.984
  359SOL    HW2 1321   0.000   1.217   2.846
  360SOL     OW 1322   1.726   0.135   2.385
  360SOL    HW1 1323   1.799   0.118   2.318
  360SOL    HW2 1324   1.695   0.048   2.423
  361SOL     OW 1325   1.388   1.573   2.339
  361SOL    HW1 1326   1.455   1.585   2.265
  361SOL    HW2 1327   1.348   1.662   2.362
  362SOL     OW 1328   1.280   0.927   2.534
  362SOL    HW1 1329   1.340   0.846   2.536
  362SOL    HW2 1330   1.320   0.996   2.474
  363SOL     OW 1331   0.830   1.273   3.284
  363SOL    HW1 1332   0.825   1.306   3.379
  363SOL    HW2 1333   0.744   1.292   3.238
  364SOL     OW 1334   0.672   1.616   2.016
  364SOL    HW1 1335   0.681   1.626   1.917
  364SOL    HW2 1336   0.632   1.527   2.037
  365SOL     OW 1337   1.650   1.720   3.256
  365SOL    HW1 1338   1.703   1.730   3.172
  365SOL    HW2 1339   1.623   1.810   3.290
  366SOL     OW 1340   1.841   0.175   2.825
  366SOL    HW1 1341   1.880   0.090   2.789
  366SOL    HW2 1342   1.743   0.177   2.806
  367SOL     OW 1343   0.263   0.326   2.582
  367SOL    HW1 1344   0.184   0.377   2.548
  367SOL    HW2 1345   0.254   0.311   2.680
  368SOL     OW 1346   1.194   1.612   1.893
  368SOL    HW1 1347   1.200   1.519   1.930
  368SOL    HW2 1348   1.135   1.612   1.813
  369SOL     OW 1349   0.822   1.002   3.234
  369SOL    HW1 1350   0.862   1.001   3.142
  369SOL    HW2 1351   0.832   1.094   3.274
  370SOL     OW 1352   0.916   0.910   2.153
  370SOL    HW1 1353   0.979   0.948   2.085
  370SOL    HW2 1354   0.956   0.827   2.192
  371SOL     OW 1355   1.504   1.607   1.906
  371SOL    HW1 1356   1.412   1.644   1.913
  371SOL    HW2 1357   1.542   1.627   1.816
  372SOL     OW 1358   0.372   1.288   3.352
  372SOL    HW1 1359   0.359   1.381   3.318
  372SOL    HW2 1360   0.288   1.236   3.339
  373SOL     OW 1361   1.614   1.292   3.151
  373SOL    HW1 1362   1.674   1.295   3.231
  373SOL    HW2 1363   1.539   1.356   3.164
  374SOL     OW 1364   1.039   1.098   2.558
  374SOL    HW1 1365   0.969   1.051   2.612
  374SOL    HW2 1366   1.098   1.030   2.515
  375SOL     OW 1367   1.014   0.236   2.833
  375SOL    HW1 1368   1.006   0.200   2.740
  375SOL    HW2 1369   1.012   0.160   2.898
  376SOL     OW 1370   0.590   1.487   2.353
  376SOL    HW1 1371   0.632   1.429   2.283
  376SOL    HW2 1372   0.546   1.566   2.309
  377SOL     OW 1373   1.709   0.385   3.243
  377SOL    HW1 1374   1.782   0.454   3.247
  377SOL    HW2 1375   1.737   0.310   3.184
  378SOL     OW 1376   0.255   1.348   2.152
  378SOL    HW1 1377   0.159   1.349   2.125
  378SOL    HW2 1378   0.267   1.401   2.236
  379SOL     OW 1379   0.672   0.203   3.351
  379SOL    HW1 1380   0.762   0.187   3.311
  379SOL    HW2 1381   0.680   0.208   3.450
  380SOL     OW 1382   0.075   0.345   1.895
  380SOL    HW1 1383  -0.017   0.317   1.866
  380SOL    HW2 1384   0.106   0.422   1.839
  381SOL     OW 1385   1.440   0.856   3.260
  381SOL    HW1 1386   1.383   0.908   3.197
  381SOL    HW2 1387   1.536   0.868   3.236
  382SOL     OW 1388   0.072   0.166   2.180
  382SOL    HW1 1389   0.055   0.249   2.126
  382SOL    HW2 1390   0.162   0.129   2.158
  383SOL     OW 1391   1.183   1.335   1.981
  383SOL    HW1 1392   1.084   1.324   1.983
  383SOL    HW2 1393   1.217   1.350   2.074
  384SOL     OW 1394   0.613   0.842   3.293
  384SOL    HW1 1395   0.669   0.923   3.276
  384SOL    HW2 1396   0.672   0.762   3.296
  385SOL     OW 1397   1.493   1.767   2.821
  385SOL    HW1 1398   1.526   1.831   2.752
  385SOL    HW2 1399   1.559   1.761   2.896
  386SOL     OW 1400   1.674   0.883   3.116
  386SOL    HW1 1401   1.647   0.794   3.079
  386SOL    HW2 1402   1.675   0.951   3.043
  387SOL     OW 1403   1.225   0.325   2.311
  387SOL    HW1 1404   1.290   0.251   2.300
  387SOL    HW2 1405   1.245   0.375   2.395
  388SOL     OW 1406   0.594   0.745   2.514
  388SOL    HW1 1407   0.644   0.830   2.495
  388SOL    HW2 1408   0.506   0.747   2.466
  389SOL     OW 1409   1.730   0.934   3.379
  389SOL    HW1 1410   1.768   1.025   3.394
  389SOL    HW2 1411   1.722   0.917   3.280
  390SOL     OW 1412   0.859   1.374   1.878
  390SOL    HW1 1413   0.813   1.389   1.966
  390SOL    HW2 1414   0.903   1.459   1.848
  391SOL     OW 1415   0.661   1.790   2.815
  391SOL    HW1 1416   0.615   1.878   2.802
  391SOL    HW2 1417   0.760   1.802   2.808
  392SOL     OW 1418   0.859   0.956   2.723
  392SOL    HW1 1419   0.913   0.887   2.771
  392SOL    HW2 1420   0.827   1.025   2.789
  393SOL     OW 1421   1.083   0.984   1.949
  393SOL    HW1 1422   1.060   1.037   1.867
  393SOL    HW2 1423   1.164   0.928   1.930
  394SOL     OW 1424   1.861   1.569   2.713
  394SOL    HW1 1425   1.790   1.557   2.643
  394SOL    HW2 1426   1.862   1.490   2.773
  395SOL     OW 1427   0.079   1.240   2.515
  395SOL    HW1 1428   0.078   1.193   2.603
  395SOL    HW2 1429   0.161   1.212   2.464
  396SOL     OW 1430   1.824   0.192   3.089
  396SOL    HW1 1431   1.820   0.102   3.133
  396SOL    HW2 1432   1.827   0.181   2.990
  397SOL     OW 1433   0.428   0.424   2.382
  397SOL    HW1 1434   0.458   0.352   2.320
  397SOL    HW2 1435   0.389   0.384   2.465
  398SOL     OW 1436   1.705   1.487   2.966
  398SOL    HW1 1437   1.612   1.462   2.939
  398SOL    HW2 1438   1.731   1.437   3.048
  399SOL     OW 1439   0.317   0.547   3.142
  399SOL    HW1 1440   0.355   0.488   3.214
  399SOL    HW2 1441   0.357   0.521   3.054
  400SOL     OW 1442   0.812   1.586   2.549
  400SOL    HW1 1443   0.844   1.596   2.455
  400SOL    HW2 1444   0.733   1.524   2.551
  401SOL     OW 1445   1.424   0.214   2.974
  401SOL    HW1 1446   1.476   0.149   3.029
  401SOL    HW2 1447   1.375   0.277   3.035
  402SOL     OW 1448   1.001   0.034   3.016
  402SOL    HW1 1449   0.938  -0.038   2.985
  402SOL    HW2 1450   1.094  -0.002   3.016
  403SOL     OW 1451   0.770   1.330   2.163
  403SOL    HW1 1452   0.724   1.243   2.180
  403SOL    HW2 1453   0.861   1.327   2.204
  404SOL     OW 1454   0.618   1.567   3.146
  404SOL    HW1 1455   0.613   1.649   3.203
  404SOL    HW2 1456   0.707   1.564   3.101
  405SOL     OW 1457   1.352   0.052   2.030
  405SOL    HW1 1458   1.387   0.011   1.946
  405SOL    HW2 1459   1.262   0.014   2.050
  406SOL     OW 1460   1.300   0.453   2.553
  406SOL    HW1 1461   1.241   0.533   2.557
  406SOL    HW2 1462   1.315   0.418   2.646
  407SOL     OW 1463   1.593   0.221   2.744
  407SOL    HW1 1464   1.509   0.220   2.798
  407SOL    HW2 1465   1.595   0.304   2.688
  408SOL     OW 1466   0.039   1.077   2.162
  408SOL    HW1 1467   0.138   1.066   2.153
  408SOL    HW2 1468  -0.001   0.991   2.194
  409SOL     OW 1469   0.875   1.646   2.199
  409SOL    HW1 1470   0.798   1.611   2.145
  409SOL    HW2 1471   0.843   1.717   2.261
  410SOL     OW 1472   0.230   2.490   0.113
  410SOL    HW1 1473   0.137   2.488   0.150
  410SOL    HW2 1474   0.231   2.451   0.021
  411SOL     OW 1475   0.225   2.137   0.996
  411SOL    HW1 1476   0.260   2.120   1.088
  411SOL    HW2 1477   0.137   2.092   0.984
  412SOL     OW 1478   0.019   2.230   0.647
  412SOL    HW1 1479  -0.063   2.273   0.686
  412SOL    HW2 1480  -0.009   2.157   0.584
  413SOL     OW 1481   0.569   3.137   1.165
  413SOL    HW1 1482   0.476   3.130   1.128
  413SOL    HW2 1483   0.580   3.226   1.209
  414SOL     OW 1484   1.555   3.373   0.703
  414SOL    HW1 1485   1.498   3.357   0.784
  414SOL    HW2 1486   1.496   3.383   0.623
  415SOL     OW 1487   1.135   2.565   0.717
  415SOL    HW1 1488   1.192   2.643   0.692
  415SOL    HW2 1489   1.075   2.591   0.793
  416SOL     OW 1490   1.755   2.469   0.231
  416SOL    HW1 1491   1.743   2.456   0.132
  416SOL    HW2 1492   1.725   2.388   0.280
  417SOL     OW 1493   0.768   3.006   1.023
  417SOL    HW1 1494   0.690   3.023   1.083
  417SOL    HW2 1495   0.802   3.093   0.987
  418SOL     OW 1496   0.850   2.660   1.823
  418SOL    HW1 1497   0.846   2.736   1.888
  418SOL    HW2 1498   0.872   2.696   1.732
  419SOL     OW 1499   0.685   2.874   0.665
  419SOL    HW1 1500   0.754   2.858   0.735
  419SOL    HW2 1501   0.612   2.931   0.703
  420SOL     OW 1502   0.686   3.023   1.803
  420SOL    HW1 1503   0.746   3.102   1.817
  420SOL    HW2 1504   0.600   3.054   1.762
  421SOL     OW 1505   0.335   3.297   1.061
  421SOL    HW1 1506   0.257   3.266   1.008
  421SOL    HW2 1507   0.393   3.355   1.004
  422SOL     OW 1508   1.460   3.367   1.339
  422SOL    HW1 1509   1.484   3.461   1.365
  422SOL    HW2 1510   1.444   3.313   1.421
  423SOL     OW 1511   0.438   2.254   1.499
  423SOL    HW1 1512   0.520   2.198   1.508
  423SOL    HW2 1513   0.357   2.196   1.503
  424SOL     OW 1514   1.603   2.309   0.737
  424SOL    HW1 1515   1.529   2.355   0.687
  424SOL    HW2 1516   1.654   2.377   0.790
  425SOL     OW 1517   0.231   3.575   0.483
  425SOL    HW1 1518   0.265   3.652   0.537
  425SOL    HW2 1519   0.275   3.575   0.393
  426SOL     OW 1520   1.127   3.203   1.690
  426SOL    HW1 1521   1.174   3.203   1.778
  426SOL    HW2 1522   1.079   3.116   1.679
  427SOL     OW 1523   0.230   3.296   0.538
  427SOL    HW1 1524   0.204   3.392   0.538
  427SOL    HW2 1525   0.159   3.242   0.583
  428SOL     OW 1526   0.240   2.953   0.886
  428SOL    HW1 1527   0.254   2.869   0.938
  428SOL    HW2 1528   0.185   3.017   0.941
  429SOL     OW 1529   0.620   3.648   1.439
  429SOL    HW1 1530   0.528   3.631   1.474
  429SOL    HW2 1531   0.648   3.740   1.465
  430SOL     OW 1532   0.606   2.826   0.123
  430SOL    HW1 1533   0.613   2.910   0.069
  430SOL    HW2 1534   0.652   2.839   0.211
  431SOL     OW 1535   1.594   1.976   1.480
  431SOL    HW1 1536   1.576   2.043   1.408
  431SOL    HW2 1537   1.591   2.022   1.569
  432SOL     OW 1538   0.122   2.505   0.563
  432SOL    HW1 1539   0.077   2.417   0.580
  432SOL    HW2 1540   0.121   2.559   0.647
  433SOL     OW 1541   1.842   3.629   0.359
  433SOL    HW1 1542   1.896   3.600   0.439
  433SOL    HW2 1543   1.872   3.719   0.330
  434SOL     OW 1544   0.027   3.458   0.117
  434SOL    HW1 1545   0.008   3.362   0.138
  434SOL    HW2 1546  -0.006   3.516   0.192
  435SOL     OW 1547   1.689   2.784   0.612
  435SOL    HW1 1548   1.784   2.755   0.620
  435SOL    HW2 1549   1.681   2.849   0.537
  436SOL     OW 1550   1.641   2.970   0.432
  436SOL    HW1 1551   1.727   2.972   0.380
  436SOL    HW2 1552   1.655   3.017   0.520
  437SOL     OW 1553   0.113   2.599   1.597
  437SOL    HW1 1554   0.201   2.586   1.642
  437SOL    HW2 1555   0.100   2.696   1.575
  438SOL     OW 1556   0.613   3.227   0.726
  438SOL    HW1 1557   0.564   3.140   0.735
  438SOL    HW2 1558   0.590   3.270   0.639
  439SOL     OW 1559   1.293   3.090   1.423
  439SOL    HW1 1560   1.330   3.017   1.365
  439SOL    HW2 1561   1.345   3.095   1.508
  440SOL     OW 1562   0.809   1.866   0.502
  440SOL    HW1 1563   0.849   1.957   0.493
  440SOL    HW2 1564   0.709   1.874   0.508
  441SOL     OW 1565   0.197   2.838   1.264
  441SOL    HW1 1566   0.286   2.793   1.250
  441SOL    HW2 1567   0.124   2.773   1.245
  442SOL     OW 1568   1.525   2.861   0.190
  442SOL    HW1 1569   1.462   2.785   0.203
  442SOL    HW2 1570   1.573   2.879   0.276
  443SOL     OW 1571   1.187   3.654   1.616
  443SOL    HW1 1572   1.211   3.714   1.540
  443SOL    HW2 1573   1.194   3.559   1.586
  444SOL     OW 1574   0.317   2.113   1.801
  444SOL    HW1 1575   0.388   2.184   1.807
  444SOL    HW2 1576   0.229   2.152   1.829
  445SOL     OW 1577   1.466   3.279   0.953
  445SOL    HW1 1578   1.407   3.285   1.033
  445SOL    HW2 1579   1.451   3.191   0.907
  446SOL     OW 1580   1.667   3.576   0.572
  446SOL    HW1 1581   1.626   3.553   0.484
  446SOL    HW2 1582   1.649   3.502   0.637
  447SOL     OW 1583   0.598   2.591   0.270
  447SOL    HW1 1584   0.622   2.660   0.202
  447SOL    HW2 1585   0.520   2.624   0.324
  448SOL     OW 1586   1.281   2.207   0.944
  448SOL    HW1 1587   1.195   2.157   0.931
  448SOL    HW2 1588   1.343   2.153   1.000
  449SOL     OW 1589   1.576   3.524   0.307
  449SOL    HW1 1590   1.665   3.570   0.310
  449SOL    HW2 1591   1.555   3.500   0.212
  450SOL     OW 1592   0.807   2.467   1.465
  450SOL    HW1 1593   0.760   2.464   1.554
  450SOL    HW2 1594   0.756   2.412   1.399
  451SOL     OW 1595   1.394   2.331   1.674
  451SOL    HW1 1596   1.374   2.374   1.762
  451SOL    HW2 1597   1.472   2.269   1.683
  452SOL     OW 1598   0.973   2.752   1.572
  452SOL    HW1 1599   1.019   2.668   1.543
  452SOL    HW2 1600   0.917   2.786   1.497
  453SOL     OW 1601   0.991   2.272   1.242
  453SOL    HW1 1602   0.914   2.306   1.296
  453SOL    HW2 1603   0.957   2.221   1.163
  454SOL     OW 1604   1.041   2.563   0.429
  454SOL    HW1 1605   1.067   2.559   0.525
  454SOL    HW2 1606   0.956   2.512   0.415
  455SOL     OW 1607   0.076   2.673   0.789
  455SOL    HW1 1608   0.175   2.661   0.798
  455SOL    HW2 1609   0.052   2.768   0.810
  456SOL     OW 1610   0.130   3.683   1.571
  456SOL    HW1 1611   0.120   3.668   1.670
  456SOL    HW2 1612   0.044   3.719   1.535
  457SOL     OW 1613   0.865   2.210   0.195
  457SOL    HW1 1614   0.924   2.273   0.146
  457SOL    HW2 1615   0.884   2.116   0.166
  458SOL     OW 1616   1.719   2.447   1.831
  458SOL    HW1 1617   1.693   2.536   1.795
  458SOL    HW2 1618   1.717   2.379   1.758
  459SOL     OW 1619   1.362   3.006   0.545
  459SOL    HW1 1620   1.445   2.977   0.497
  459SOL    HW2 1621   1.313   3.073   0.489
  460SOL     OW 1622   0.550   2.058   0.885
  460SOL    HW1 1623   0.545   2.053   0.985
  460SOL    HW2 1624   0.552   2.154   0.856
  461SOL     OW 1625   1.008   3.318   0.477
  461SOL    HW1 1626   0.962   3.390   0.425
  461SOL    HW2 1627   1.004   3.338   0.575
  462SOL     OW 1628   0.351   3.663   0.853
  462SOL    HW1 1629   0.401   3.577   0.859
  462SOL    HW2 1630   0.416   3.740   0.850
  463SOL     OW 1631   1.795   2.928   0.873
  463SOL    HW1 1632   1.733   2.913   0.797
  463SOL    HW2 1633   1.743   2.939   0.958
  464SOL     OW 1634   1.227   3.412   1.506
  464SOL    HW1 1635   1.233   3.335   1.570
  464SOL    HW2 1636   1.175   3.386   1.426
  465SOL     OW 1637   0.321   2.805   0.242
  465SOL    HW1 1638   0.403   2.844   0.200
  465SOL    HW2 1639   0.294   2.723   0.193
  466SOL     OW 1640   1.458   2.597   0.728
  466SOL    HW1 1641   1.453   2.532   0.803
  466SOL    HW2 1642   1.538   2.656   0.741
  467SOL     OW 1643   0.461   3.128   1.727
  467SOL    HW1 1644   0.411   3.129   1.641
  467SOL    HW2 1645   0.398   3.110   1.803
  468SOL     OW 1646   1.111   3.638   0.237
  468SOL    HW1 1647   1.051   3.576   0.287
  468SOL    HW2 1648   1.142   3.594   0.152
  469SOL     OW 1649   0.202   2.147   1.498
  469SOL    HW1 1650   0.122   2.207   1.485
  469SOL    HW2 1651   0.192   2.098   1.584
  470SOL     OW 1652   1.632   3.239   0.081
  470SOL    HW1 1653   1.600   3.333   0.071
  470SOL    HW2 1654   1.556   3.176   0.069
  471SOL     OW 1655   0.464   3.605   0.323
  471SOL    HW1 1656   0.497   3.644   0.409
  471SOL    HW2 1657   0.540   3.598   0.258
  472SOL     OW 1658   1.400   1.969   0.426
  472SOL    HW1 1659   1.376   1.932   0.336
  472SOL    HW2 1660   1.499   1.985   0.430
  473SOL     OW 1661   0.249   3.647   1.241
  473SOL    HW1 1662   0.306   3.582   1.291
  473SOL    HW2 1663   0.233   3.614   1.148
  474SOL     OW 1664   0.940   3.560   0.904
  474SOL    HW1 1665   1.020   3.503   0.925
  474SOL    HW2 1666   0.891   3.520   0.827
  475SOL     OW 1667   0.382   2.562   0.480
  475SOL    HW1 1668   0.427   2.472   0.477
  475SOL    HW2 1669   0.288   2.551   0.513
  476SOL     OW 1670   1.547   2.084   1.729
  476SOL    HW1 1671   1.542   2.121   1.821
  476SOL    HW2 1672   1.475   2.015   1.717
  477SOL     OW 1673   0.614   1.984   0.117
  477SOL    HW1 1674   0.712   1.962   0.124
  477SOL    HW2 1675   0.583   1.967   0.024
  478SOL     OW 1676   0.781   2.126   1.749
  478SOL    HW1 1677   0.848   2.065   1.792
  478SOL    HW2 1678   0.708   2.145   1.814
  479SOL     OW 1679   0.888   3.376   1.195
  479SOL    HW1 1680   0.865   3.351   1.101
  479SOL    HW2 1681   0.949   3.307   1.234
  480SOL     OW 1682   1.351   2.452   1.433
  480SOL    HW1 1683   1.379   2.409   1.518
  480SOL    HW2 1684   1.376   2.548   1.434
  481SOL     OW 1685   0.803   3.264   0.924
  481SOL    HW1 1686   0.893   3.278   0.882
  481SOL    HW2 1687   0.732   3.266   0.853
  482SOL     OW 1688   0.922   2.365   0.899
  482SOL    HW1 1689   0.897   2.356   0.803
  482SOL    HW2 1690   0.970   2.283   0.930
  483SOL     OW 1691   0.539   1.926   0.512
  483SOL    HW1 1692   0.458   1.927   0.570
  483SOL    HW2 1693   0.542   2.009   0.457
  484SOL     OW 1694   1.434   3.050   0.041
  484SOL    HW1 1695   1.466   2.974   0.098
  484SOL    HW2 1696   1.342   3.077   0.071
  485SOL     OW 1697   0.297   1.897   0.171
  485SOL    HW1 1698   0.346   1.981   0.150
  485SOL    HW2 1699   0.359   1.832   0.216
  486SOL     OW 1700   0.935   2.098   0.480
  486SOL    HW1 1701   0.887   2.139   0.402
  486SOL    HW2 1702   1.034   2.096   0.461
  487SOL     OW 1703   1.076   2.545   1.464
  487SOL    HW1 1704   0.996   2.484   1.467
  487SOL    HW2 1705   1.157   2.492   1.440
  488SOL     OW 1706   1.227   3.432   0.793
  488SOL    HW1 1707   1.248   3.506   0.728
  488SOL    HW2 1708   1.295   3.432   0.866
  489SOL     OW 1709   0.459   3.014   0.741
  489SOL    HW1 1710   0.388   2.987   0.806
  489SOL    HW2 1711   0.433   2.986   0.648
  490SOL     OW 1712   1.271   3.659   0.591
  490SOL    HW1 1713   1.315   3.723   0.527
  490SOL    HW2 1714   1.221   3.711   0.661
  491SOL     OW 1715   1.032   2.411   0.016
  491SOL    HW1 1716   0.991   2.493  -0.023
  491SOL    HW2 1717   1.096   2.437   0.089
  492SOL     OW 1718   0.078   2.418   1.386
  492SOL    HW1 1719   0.170   2.417   1.345
  492SOL    HW2 1720   0.072   2.492   1.453
  493SOL     OW 1721   0.561   2.084   1.147
  493SOL    HW1 1722   0.599   2.000   1.184
  493SOL    HW2 1723   0.473   2.103   1.191
  494SOL     OW 1724   0.866   2.316   0.642
  494SOL    HW1 1725   0.834   2.388   0.580
  494SOL    HW2 1726   0.890   2.235   0.589
  495SOL     OW 1727   1.017   1.901   0.753
  495SOL    HW1 1728   0.945   1.906   0.684
  495SOL    HW2 1729   0.993   1.832   0.822
  496SOL     OW 1730   1.429   3.035   0.867
  496SOL    HW1 1731   1.374   2.951   0.860
  496SOL    HW2 1732   1.455   3.064   0.775
  497SOL     OW 1733   1.466   2.452   0.992
  497SOL    HW1 1734   1.436   2.357   0.999
  497SOL    HW2 1735   1.539   2.468   1.058
  498SOL     OW 1736   1.857   2.695   0.377
  498SOL    HW1 1737   1.899   2.631   0.441
  498SOL    HW2 1738   1.819   2.644   0.299
  499SOL     OW 1739   0.488   3.247   0.174
  499SOL    HW1 1740   0.401   3.232   0.221
  499SOL    HW2 1741   0.471   3.273   0.079
  500SOL     OW 1742   1.664   3.142   0.657
  500SOL    HW1 1743   1.763   3.150   0.671
  500SOL    HW2 1744   1.619   3.226   0.688
  501SOL     OW 1745   1.390   2.437   0.078
  501SOL    HW1 1746   1.336   2.416   0.159
  501SOL    HW2 1747   1.481   2.396   0.087
  502SOL     OW 1748   0.527   2.118   0.328
  502SOL    HW1 1749   0.554   2.059   0.253
  502SOL    HW2 1750   0.527   2.213   0.297
  503SOL     OW 1751   1.754   3.085   1.588
  503SOL    HW1 1752   1.845   3.046   1.575
  503SOL    HW2 1753   1.762   3.181   1.612
  504SOL     OW 1754   1.064   3.209   1.340
  504SOL    HW1 1755   0.984   3.186   1.395
  504SOL    HW2 1756   1.147   3.183   1.389
  505SOL     OW 1757   1.592   3.491   1.625
  505SOL    HW1 1758   1.619   3.525   1.535
  505SOL    HW2 1759   1.671   3.453   1.671
  506SOL     OW 1760   1.111   3.057   1.100
  506SOL    HW1 1761   1.071   3.101   1.181
  506SOL    HW2 1762   1.070   3.094   1.017
  507SOL     OW 1763   1.638   2.961   1.079
  507SOL    HW1 1764   1.643   3.042   1.138
  507SOL    HW2 1765   1.552   2.963   1.028
  508SOL     OW 1766   0.915   1.951   1.402
  508SOL    HW1 1767   0.940   1.931   1.307
  508SOL    HW2 1768   0.987   2.007   1.444
  509SOL     OW 1769   0.980   2.978   1.719
  509SOL    HW1 1770   0.881   2.984   1.729
  509SOL    HW2 1771   1.003   2.898   1.663
  510SOL     OW 1772   0.705   2.912   0.368
  510SOL    HW1 1773   0.691   2.919   0.467
  510SOL    HW2 1774   0.789   2.861   0.350
  511SOL     OW 1775   0.410   2.675   1.251
  511SOL    HW1 1776   0.496   2.687   1.301
  511SOL    HW2 1777   0.368   2.588   1.278
  512SOL     OW 1778   1.274   2.248   1.262
  512SOL    HW1 1779   1.295   2.322   1.326
  512SOL    HW2 1780   1.185   2.265   1.219
  513SOL     OW 1781   0.064   3.426   1.331
  513SOL    HW1 1782   0.018   3.508   1.297
  513SOL    HW2 1783   0.162   3.445   1.340
  514SOL     OW 1784   0.367   2.962   0.501
  514SOL    HW1 1785   0.360   3.045   0.445
  514SOL    HW2 1786   0.371   2.882   0.441
  515SOL     OW 1787   0.566   2.399   0.865
  515SOL    HW1 1788   0.578   2.465   0.791
  515SOL    HW2 1789   0.612   2.433   0.948
  516SOL     OW 1790   1.252   3.210   0.388
  516SOL    HW1 1791   1.302   3.287   0.428
  516SOL    HW2 1792   1.157   3.212   0.420
  517SOL     OW 1793   1.272   3.307   1.142
  517SOL    HW1 1794   1.319   3.320   1.229
  517SOL    HW2 1795   1.206   3.233   1.151
  518SOL     OW 1796   1.582   2.501   0.472
  518SOL    HW1 1797   1.551   2.562   0.545
  518SOL    HW2 1798   1.632   2.553   0.403
  519SOL     OW 1799   0.354   3.372   1.329
  519SOL    HW1 1800   0.333   3.328   1.242
  519SOL    HW2 1801   0.451   3.398   1.332
  520SOL     OW 1802   0.402   2.613   1.598
  520SOL    HW1 1803   0.470   2.668   1.551
  520SOL    HW2 1804   0.442   2.525   1.625
  521SOL     OW 1805   1.587   2.641   1.670
  521SOL    HW1 1806   1.495   2.679   1.665
  521SOL    HW2 1807   1.647   2.688   1.605
  522SOL     OW 1808   1.013   1.967   1.770
  522SOL    HW1 1809   1.019   2.052   1.718
  522SOL    HW2 1810   1.045   1.891   1.713
  523SOL     OW 1811   0.504   1.912   1.740
  523SOL    HW1 1812   0.462   1.855   1.670
  523SOL    HW2 1813   0.438   1.981   1.772
  524SOL     OW 1814   0.573   2.732   1.029
  524SOL    HW1 1815   0.617   2.821   1.020
  524SOL    HW2 1816   0.510   2.732   1.106
  525SOL     OW 1817   1.360   2.724   1.045
  525SOL    HW1 1818   1.285   2.724   0.979
  525SOL    HW2 1819   1.397   2.632   1.054
  526SOL     OW 1820   1.209   2.387   0.275
  526SOL    HW1 1821   1.222   2.303   0.329
  526SOL    HW2 1822   1.180   2.461   0.335
  527SOL     OW 1823   0.307   2.075   1.231
  527SOL    HW1 1824   0.284   2.112   1.321
  527SOL    HW2 1825   0.277   1.980   1.225
  528SOL     OW 1826   0.037   3.172   1.282
  528SOL    HW1 1827   0.090   3.123   1.350
  528SOL    HW2 1828   0.059   3.270   1.287
  529SOL     OW 1829   0.732   2.496   1.064
  529SOL    HW1 1830   0.791   2.470   0.988
  529SOL    HW2 1831   0.704   2.592   1.053
  530SOL     OW 1832   1.728   2.797   1.854
  530SOL    HW1 1833   1.682   2.790   1.765
  530SOL    HW2 1834   1.666   2.841   1.920
  531SOL     OW 1835   0.307   1.925   0.618
  531SOL    HW1 1836   0.296   2.019   0.651
  531SOL    HW2 1837   0.302   1.862   0.695
  532SOL     OW 1838   1.622   2.229   0.374
  532SOL    HW1 1839   1.624   2.153   0.438
  532SOL    HW2 1840   1.574   2.306   0.414
  533SOL     OW 1841   1.023   2.628   0.966
  533SOL    HW1 1842   1.038   2.649   1.062
  533SOL    HW2 1843   0.993   2.533   0.957
  534SOL     OW 1844   0.980   3.435   1.700
  534SOL    HW1 1845   0.960   3.479   1.612
  534SOL    HW2 1846   1.019   3.344   1.684
  535SOL     OW 1847   1.859   3.380   1.605
  535SOL    HW1 1848   1.873   3.407   1.510
  535SOL    HW2 1849   1.942   3.402   1.658
  536SOL     OW 1850   0.350   2.760   1.804
  536SOL    HW1 1851   0.426   2.804   1.852
  536SOL    HW2 1852   0.385   2.713   1.722
  537SOL     OW 1853   1.540   2.136   0.125
  537SOL    HW1 1854   1.479   2.061   0.148
  537SOL    HW2 1855   1.562   2.188   0.208
  538SOL     OW 1856   1.303   2.700   0.042
  538SOL    HW1 1857   1.337   2.607   0.057
  538SOL    HW2 1858   1.321   2.727  -0.053
  539SOL     OW 1859   1.068   3.195   0.849
  539SOL    HW1 1860   1.075   3.111   0.794
  539SOL    HW2 1861   1.130   3.264   0.813
  540SOL     OW 1862   0.319   2.672   0.949
  540SOL    HW1 1863   0.412   2.708   0.954
  540SOL    HW2 1864   0.313   2.587   1.001
  541SOL     OW 1865   0.339   2.371   1.006
  541SOL    HW1 1866   0.287   2.288   0.989
  541SOL    HW2 1867   0.416   2.376   0.942
  542SOL     OW 1868   1.138   2.242   1.678
  542SOL    HW1 1869   1.093   2.305   1.742
  542SOL    HW2 1870   1.231   2.273   1.661
  543SOL     OW 1871   1.160   2.069   1.477
  543SOL    HW1 1872   1.160   2.133   1.554
  543SOL    HW2 1873   1.188   2.117   1.394
  544SOL     OW 1874   0.008   3.188   0.200
  544SOL    HW1 1875  -0.085   3.209   0.169
  544SOL    HW2 1876   0.018   3.089   0.213
  545SOL     OW 1877   0.088   3.663   0.927
  545SOL    HW1 1878   0.046   3.577   0.900
  545SOL    HW2 1879   0.182   3.666   0.893
  546SOL     OW 1880   0.504   3.430   0.910
  546SOL    HW1 1881   0.570   3.504   0.919
  546SOL    HW2 1882   0.548   3.351   0.868
  547SOL     OW 1883   1.002   2.658   1.238
  547SOL    HW1 1884   1.043   2.626   1.324
  547SOL    HW2 1885   0.906   2.631   1.235
  548SOL     OW 1886   0.040   2.406   1.114
  548SOL    HW1 1887   0.125   2.373   1.073
  548SOL    HW2 1888   0.053   2.421   1.212
  549SOL     OW 1889   0.189   2.382   1.722
  549SOL    HW1 1890   0.248   2.342   1.652
  549SOL    HW2 1891   0.131   2.453   1.681
  550SOL     OW 1892   1.369   2.812   1.660
  550SOL    HW1 1893   1.408   2.901   1.680
  550SOL    HW2 1894   1.379   2.792   1.563
  551SOL     OW 1895   0.815   2.434   0.325
  551SOL    HW1 1896   0.822   2.345   0.279
  551SOL    HW2 1897   0.721   2.468   0.317
  552SOL     OW 1898   1.657   2.466   1.206
  552SOL    HW1 1899   1.619   2.397   1.268
  552SOL    HW2 1900   1.739   2.430   1.162
  553SOL     OW 1901   0.252   3.426   1.744
  553SOL    HW1 1902   0.222   3.483   1.820
  553SOL    HW2 1903   0.245   3.329   1.770
  554SOL     OW 1904   0.671   2.326   1.269
  554SOL    HW1 1905   0.637   2.237   1.239
  554SOL    HW2 1906   0.697   2.380   1.189
  555SOL     OW 1907   0.930   3.540   1.465
  555SOL    HW1 1908   0.906   3.522   1.370
  555SOL    HW2 1909   0.960   3.634   1.475
  556SOL     OW 1910   0.473   2.362   0.191
  556SOL    HW1 1911   0.534   2.442   0.195
  556SOL    HW2 1912   0.378   2.393   0.198
  557SOL     OW 1913   0.159   2.999   1.466
  557SOL    HW1 1914   0.181   2.938   1.542
  557SOL    HW2 1915   0.169   2.950   1.380
  558SOL     OW 1916   1.347   2.921   1.234
  558SOL    HW1 1917   1.371   2.858   1.160
  558SOL    HW2 1918   1.257   2.961   1.216
  559SOL     OW 1919   1.302   2.717   0.309
  559SOL    HW1 1920   1.216   2.686   0.351
  559SOL    HW2 1921   1.298   2.703   0.210
  560SOL     OW 1922   1.759   3.609   1.154
  560SOL    HW1 1923   1.820   3.639   1.081
  560SOL    HW2 1924   1.721   3.520   1.132
  561SOL     OW 1925   1.252   3.593   1.128
  561SOL    HW1 1926   1.336   3.598   1.074
  561SOL    HW2 1927   1.229   3.497   1.146
  562SOL     OW 1928   0.083   3.120   1.022
  562SOL    HW1 1929   0.078   3.119   1.122
  562SOL    HW2 1930   0.000   3.079   0.984
  563SOL     OW 1931   0.688   3.524   1.716
  563SOL    HW1 1932   0.632   3.605   1.725
  563SOL    HW2 1933   0.740   3.528   1.630
  564SOL     OW 1934   0.903   1.948   0.133
  564SOL    HW1 1935   0.954   1.949   0.047
  564SOL    HW2 1936   0.959   1.906   0.204
  565SOL     OW 1937   1.726   1.997   0.523
  565SOL    HW1 1938   1.799   1.980   0.456
  565SOL    HW2 1939   1.695   1.910   0.561
  566SOL     OW 1940   1.388   3.435   0.477
  566SOL    HW1 1941   1.455   3.447   0.403
  566SOL    HW2 1942   1.348   3.524   0.500
  567SOL     OW 1943   0.130   3.656   1.851
  567SOL    HW1 1944   0.089   3.582   1.904
  567SOL    HW2 1945   0.194   3.707   1.909
  568SOL     OW 1946   1.280   2.789   0.672
  568SOL    HW1 1947   1.340   2.708   0.674
  568SOL    HW2 1948   1.320   2.858   0.612
  569SOL     OW 1949   0.830   3.135   1.422
  569SOL    HW1 1950   0.825   3.168   1.517
  569SOL    HW2 1951   0.744   3.154   1.376
  570SOL     OW 1952   0.672   3.478   0.154
  570SOL    HW1 1953   0.681   3.488   0.055
  570SOL    HW2 1954   0.632   3.389   0.175
  571SOL     OW 1955   1.650   3.582   1.394
  571SOL    HW1 1956   1.703   3.592   1.310
  571SOL    HW2 1957   1.623   3.672   1.428
  572SOL     OW 1958   1.841   2.037   0.963
  572SOL    HW1 1959   1.880   1.952   0.927
  572SOL    HW2 1960   1.743   2.039   0.944
  573SOL     OW 1961   0.263   2.188   0.720
  573SOL    HW1 1962   0.184   2.239   0.686
  573SOL    HW2 1963   0.254   2.173   0.818
  574SOL     OW 1964   1.194   3.474   0.031
  574SOL    HW1 1965   1.200   3.381   0.068
  574SOL    HW2 1966   1.135   3.474  -0.049
  575SOL     OW 1967   0.822   2.864   1.372
  575SOL    HW1 1968   0.862   2.863   1.280
  575SOL    HW2 1969   0.832   2.956   1.412
  576SOL     OW 1970   0.916   2.772   0.291
  576SOL    HW1 1971   0.979   2.810   0.223
  576SOL    HW2 1972   0.956   2.689   0.330
  577SOL     OW 1973   1.504   3.469   0.044
  577SOL    HW1 1974   1.412   3.506   0.051
  577SOL    HW2 1975   1.542   3.489  -0.046
  578SOL     OW 1976   0.372   3.150   1.490
  578SOL    HW1 1977   0.359   3.243   1.456
  578SOL    HW2 1978   0.288   3.098   1.477
  579SOL     OW 1979   1.614   3.154   1.289
  579SOL    HW1 1980   1.674   3.157   1.369
  579SOL    HW2 1981   1.539   3.218   1.302
  580SOL     OW 1982   1.039   2.960   0.696
  580SOL    HW1 1983   0.969   2.913   0.750
  580SOL    HW2 1984   1.098   2.892   0.653
  581SOL     OW 1985   1.014   2.098   0.971
  581SOL    HW1 1986   1.006   2.062   0.878
  581SOL    HW2 1987   1.012   2.022   1.036
  582SOL     OW 1988   0.590   3.349   0.491
  582SOL    HW1 1989   0.632   3.291   0.421
  582SOL    HW2 1990   0.546   3.428   0.447
  583SOL     OW 1991   1.709   2.247   1.381
  583SOL    HW1 1992   1.782   2.316   1.385
  583SOL    HW2 1993   1.737   2.172   1.322
  584SOL     OW 1994   0.255   3.210   0.290
  584SOL    HW1 1995   0.159   3.211   0.263
  584SOL    HW2 1996   0.267   3.263   0.374
  585SOL     OW 1997   0.105   2.875   1.726
  585SOL    HW1 1998   0.028   2.842   1.780
  585SOL    HW2 1999   0.190   2.845   1.768
  586SOL     OW 2000   0.672   2.065   1.489
  586SOL    HW1 2001   0.762   2.049   1.449
  586SOL    HW2 2002   0.680   2.070   1.588
  587SOL     OW 2003   0.075   2.207   0.033
  587SOL    HW1 2004  -0.017   2.179   0.004
  587SOL    HW2 2005   0.106   2.284  -0.023
  588SOL     OW 2006   1.440   2.718   1.398
  588SOL    HW1 2007   1.383   2.770   1.335
  588SOL    HW2 2008   1.536   2.730   1.374
  589SOL     OW 2009   0.072   2.028   0.318
  589SOL    HW1 2010   0.055   2.111   0.264
  589SOL    HW2 2011   0.162   1.991   0.296
  590SOL     OW 2012   1.183   3.197   0.119
  590SOL    HW1 2013   1.084   3.186   0.121
  590SOL    HW2 2014   1.217   3.212   0.212
  591SOL     OW 2015   0.613   2.704   1.431
  591SOL    HW1 2016   0.669   2.785   1.414
  591SOL    HW2 2017   0.672   2.624   1.434
  592SOL     OW 2018   1.493   3.629   0.959
  592SOL    HW1 2019   1.526   3.693   0.890
  592SOL    HW2 2020   1.559   3.623   1.034
  593SOL     OW 2021   0.716   2.427   1.708
  593SOL    HW1 2022   0.735   2.492   1.782
  593SOL    HW2 2023   0.776   2.347   1.717
  594SOL     OW 2024   1.450   3.082   1.633
  594SOL    HW1 2025   1.441   3.072   1.732
  594SOL    HW2 2026   1.546   3.075   1.607
  595SOL     OW 2027   0.390   3.603   1.560
  595SOL    HW1 2028   0.299   3.644   1.558
  595SOL    HW2 2029   0.383   3.509   1.592
  596SOL     OW 2030   1.674   2.745   1.254
  596SOL    HW1 2031   1.647   2.656   1.217
  596SOL    HW2 2032   1.675   2.813   1.181
  597SOL     OW 2033   1.225   2.187   0.449
  597SOL    HW1 2034   1.290   2.113   0.438
  597SOL    HW2 2035   1.245   2.237   0.533
  598SOL     OW 2036   0.594   2.607   0.652
  598SOL    HW1 2037   0.644   2.692   0.633
  598SOL    HW2 2038   0.506   2.609   0.604
  599SOL     OW 2039   1.777   2.204   1.642
  599SOL    HW1 2040   1.760   2.235   1.548
  599SOL    HW2 2041   1.693   2.167   1.680
  600SOL     OW 2042   1.730   2.796   1.517
  600SOL    HW1 2043   1.768   2.887   1.532
  600SOL    HW2 2044   1.722   2.779   1.418
  601SOL     OW 2045   0.859   3.236   0.016
  601SOL    HW1 2046   0.813   3.251   0.104
  601SOL    HW2 2047   0.903   3.321  -0.014
  602SOL     OW 2048   0.661   3.652   0.953
  602SOL    HW1 2049   0.615   3.740   0.940
  602SOL    HW2 2050   0.760   3.664   0.946
  603SOL     OW 2051   0.859   2.818   0.861
  603SOL    HW1 2052   0.913   2.749   0.909
  603SOL    HW2 2053   0.827   2.887   0.927
  604SOL     OW 2054   1.083   2.846   0.087
  604SOL    HW1 2055   1.060   2.899   0.005
  604SOL    HW2 2056   1.164   2.790   0.068
  605SOL     OW 2057   1.861   3.431   0.851
  605SOL    HW1 2058   1.790   3.419   0.781
  605SOL    HW2 2059   1.862   3.352   0.911
  606SOL     OW 2060   0.221   3.176   1.844
  606SOL    HW1 2061   0.156   3.103   1.823
  606SOL    HW2 2062   0.225   3.190   1.942
  607SOL     OW 2063   0.079   3.102   0.653
  607SOL    HW1 2064   0.078   3.055   0.741
  607SOL    HW2 2065   0.161   3.074   0.602
  608SOL     OW 2066   0.672   3.253   1.624
  608SOL    HW1 2067   0.594   3.203   1.662
  608SOL    HW2 2068   0.669   3.348   1.655
  609SOL     OW 2069   1.824   2.054   1.227
  609SOL    HW1 2070   1.820   1.964   1.271
  609SOL    HW2 2071   1.827   2.043   1.128
  610SOL     OW 2072   0.428   2.286   0.520
  610SOL    HW1 2073   0.458   2.214   0.458
  610SOL    HW2 2074   0.389   2.246   0.603
  611SOL     OW 2075   1.705   3.349   1.104
  611SOL    HW1 2076   1.612   3.324   1.077
  611SOL    HW2 2077   1.731   3.299   1.186
  612SOL     OW 2078   0.317   2.409   1.280
  612SOL    HW1 2079   0.355   2.350   1.352
  612SOL    HW2 2080   0.357   2.383   1.192
  613SOL     OW 2081   0.812   3.448   0.687
  613SOL    HW1 2082   0.844   3.458   0.593
  613SOL    HW2 2083   0.733   3.386   0.689
  614SOL     OW 2084   1.424   2.076   1.112
  614SOL    HW1 2085   1.476   2.011   1.167
  614SOL    HW2 2086   1.375   2.139   1.173
  615SOL     OW 2087   1.001   1.896   1.154
  615SOL    HW1 2088   0.938   1.824   1.123
  615SOL    HW2 2089   1.094   1.860   1.154
  616SOL     OW 2090   0.770   3.192   0.301
  616SOL    HW1 2091   0.724   3.105   0.318
  616SOL    HW2 2092   0.861   3.189   0.342
  617SOL     OW 2093   0.618   3.429   1.284
  617SOL    HW1 2094   0.613   3.511   1.341
  617SOL    HW2 2095   0.707   3.426   1.239
  618SOL     OW 2096   1.352   1.914   0.168
  618SOL    HW1 2097   1.387   1.873   0.084
  618SOL    HW2 2098   1.262   1.876   0.188
  619SOL     OW 2099   1.300   2.315   0.691
  619SOL    HW1 2100   1.241   2.395   0.695
  619SOL    HW2 2101   1.315   2.280   0.784
  620SOL     OW 2102   1.593   2.083   0.882
  620SOL    HW1 2103   1.509   2.082   0.936
  620SOL    HW2 2104   1.595   2.166   0.826
  621SOL     OW 2105   0.039   2.939   0.300
  621SOL    HW1 2106   0.138   2.928   0.291
  621SOL    HW2 2107  -0.001   2.853   0.332
  622SOL     OW 2108   0.875   3.508   0.337
  622SOL    HW1 2109   0.798   3.473   0.283
  622SOL    HW2 2110   0.843   3.579   0.399
  623SOL     OW 2111   0.230   2.490   1.975
  623SOL    HW1 2112   0.137   2.488   2.012
  623SOL    HW2 2113   0.231   2.451   1.883
  624SOL     OW 2114   0.225   2.137   2.858
  624SOL    HW1 2115   0.260   2.120   2.950
  624SOL    HW2 2116   0.137   2.092   2.846
  625SOL     OW 2117   0.019   2.230   2.509
  625SOL    HW1 2118  -0.063   2.273   2.548
  625SOL    HW2 2119  -0.009   2.157   2.446
  626SOL     OW 2120   0.569   3.137   3.027
  626SOL    HW1 2121   0.476   3.130   2.990
  626SOL    HW2 2122   0.580   3.226   3.071
  627SOL     OW 2123   1.555   3.373   2.565
  627SOL    HW1 2124   1.498   3.357   2.646
  627SOL    HW2 2125   1.496   3.383   2.485
  628SOL     OW 2126   1.135   2.565   2.579
  628SOL    HW1 2127   1.192   2.643   2.554
  628SOL    HW2 2128   1.075   2.591   2.655
  629SOL     OW 2129   1.755   2.469   2.093
  629SOL    HW1 2130   1.743   2.456   1.994
  629SOL    HW2 2131   1.725   2.388   2.142
  630SOL     OW 2132   0.768   3.006   2.885
  630SOL    HW1 2133   0.690   3.023   2.945
  630SOL    HW2 2134   0.802   3.093   2.849
  631SOL     OW 2135   0.685   2.874   2.527
  631SOL    HW1 2136   0.754   2.858   2.597
  631SOL    HW2 2137   0.612   2.931   2.565
  632SOL     OW 2138   0.335   3.297   2.923
  632SOL    HW1 2139   0.257   3.266   2.870
  632SOL    HW2 2140   0.393   3.355   2.866
  633SOL     OW 2141   1.460   3.367   3.201
  633SOL    HW1 2142   1.484   3.461   3.227
  633SOL    HW2 2143   1.444   3.313   3.283
  634SOL     OW 2144   0.438   2.254   3.361
  634SOL    HW1 2145   0.520   2.198   3.370
  634SOL    HW2 2146   0.357   2.196   3.365
  635SOL     OW 2147   1.603   2.309   2.599
  635SOL    HW1 2148   1.529   2.355   2.549
  635SOL    HW2 2149   1.654   2.377   2.652
  636SOL     OW 2150   0.231   3.575   2.345
  636SOL    HW1 2151   0.265   3.652   2.399
  636SOL    HW2 2152   0.275   3.575   2.255
  637SOL     OW 2153   0.230   3.296   2.400
  637SOL    HW1 2154   0.204   3.392   2.400
  637SOL    HW2 2155   0.159   3.242   2.445
  638SOL     OW 2156   0.240   2.953   2.748
  638SOL    HW1 2157   0.254   2.869   2.800
  638SOL    HW2 2158   0.185   3.017   2.803
  639SOL     OW 2159   0.620   3.648   3.301
  639SOL    HW1 2160   0.528   3.631   3.336
  639SOL    HW2 2161   0.648   3.740   3.327
  640SOL     OW 2162   0.606   2.826   1.985
  640SOL    HW1 2163   0.613   2.910   1.931
  640SOL    HW2 2164   0.652   2.839   2.073
  641SOL     OW 2165   1.594   1.976   3.342
  641SOL    HW1 2166   1.576   2.043   3.270
  641SOL    HW2 2167   1.591   2.022   3.431
  642SOL     OW 2168   0.122   2.505   2.425
  642SOL    HW1 2169   0.077   2.417   2.442
  642SOL    HW2 2170   0.121   2.559   2.509
  643SOL     OW 2171   1.842   3.629   2.221
  643SOL    HW1 2172   1.896   3.600   2.301
  643SOL    HW2 2173   1.872   3.719   2.192
  644SOL     OW 2174   0.027   3.458   1.979
  644SOL    HW1 2175   0.008   3.362   2.000
  644SOL    HW2 2176  -0.006   3.516   2.054
  645SOL     OW 2177   1.689   2.784   2.474
  645SOL    HW1 2178   1.784   2.755   2.482
  645SOL    HW2 2179   1.681   2.849   2.399
  646SOL     OW 2180   1.641   2.970   2.294
  646SOL    HW1 2181   1.727   2.972   2.242
  646SOL    HW2 2182   1.655   3.017   2.382
  647SOL     OW 2183   0.613   3.227   2.588
  647SOL    HW1 2184   0.564   3.140   2.597
  647SOL    HW2 2185   0.590   3.270   2.501
  648SOL     OW 2186   1.293   3.090   3.285
  648SOL    HW1 2187   1.330   3.017   3.227
  648SOL    HW2 2188   1.345   3.095   3.370
  649SOL     OW 2189   0.809   1.866   2.364
  649SOL    HW1 2190   0.849   1.957   2.355
  649SOL    HW2 2191   0.709   1.874   2.370
  650SOL     OW 2192   0.197   2.838   3.126
  650SOL    HW1 2193   0.286   2.793   3.112
  650SOL    HW2 2194   0.124   2.773   3.107
  651SOL     OW 2195   1.525   2.861   2.052
  651SOL    HW1 2196   1.462   2.785   2.065
  651SOL    HW2 2197   1.573   2.879   2.138
  652SOL     OW 2198   1.466   3.279   2.815
  652SOL    HW1 2199   1.407   3.285   2.895
  652SOL    HW2 2200   1.451   3.191   2.769
  653SOL     OW 2201   1.667   3.576   2.434
  653SOL    HW1 2202   1.626   3.553   2.346
  653SOL    HW2 2203   1.649   3.502   2.499
  654SOL     OW 2204   0.598   2.591   2.132
  654SOL    HW1 2205   0.622   2.660   2.064
  654SOL    HW2 2206   0.520   2.624   2.186
  655SOL     OW 2207   1.281   2.207   2.806
  655SOL    HW1 2208   1.195   2.157   2.793
  655SOL    HW2 2209   1.343   2.153   2.862
  656SOL     OW 2210   1.576   3.524   2.169
  656SOL    HW1 2211   1.665   3.570   2.172
  656SOL    HW2 2212   1.555   3.500   2.074
  657SOL     OW 2213   0.807   2.467   3.327
  657SOL    HW1 2214   0.760   2.464   3.416
  657SOL    HW2 2215   0.756   2.412   3.261
  658SOL     OW 2216   0.973   2.752   3.434
  658SOL    HW1 2217   1.019   2.668   3.405
  658SOL    HW2 2218   0.917   2.786   3.359
  659SOL     OW 2219   0.991   2.272   3.104
  659SOL    HW1 2220   0.914   2.306   3.158
  659SOL    HW2 2221   0.957   2.221   3.025
  660SOL     OW 2222   1.041   2.563   2.291
  660SOL    HW1 2223   1.067   2.559   2.387
  660SOL    HW2 2224   0.956   2.512   2.277
  661SOL     OW 2225   0.076   2.673   2.651
  661SOL    HW1 2226   0.175   2.661   2.660
  661SOL    HW2 2227   0.052   2.768   2.672
  662SOL     OW 2228   0.865   2.210   2.057
  662SOL    HW1 2229   0.924   2.273   2.008
  662SOL    HW2 2230   0.884   2.116   2.028
  663SOL     OW 2231   1.362   3.006   2.407
  663SOL    HW1 2232   1.445   2.977   2.359
  663SOL    HW2 2233   1.313   3.073   2.351
  664SOL     OW 2234   0.550   2.058   2.747
  664SOL    HW1 2235   0.545   2.053   2.847
  664SOL    HW2 2236   0.552   2.154   2.718
  665SOL     OW 2237   1.008   3.318   2.339
  665SOL    HW1 2238   0.962   3.390   2.287
  665SOL    HW2 2239   1.004   3.338   2.437
  666SOL     OW 2240   0.351   3.663   2.715
  666SOL    HW1 2241   0.401   3.577   2.721
  666SOL    HW2 2242   0.416   3.740   2.712
  667SOL     OW 2243   1.795   2.928   2.735
  667SOL    HW1 2244   1.733   2.913   2.659
  667SOL    HW2 2245   1.743   2.939   2.820
  668SOL     OW 2246   1.227   3.412   3.368
  668SOL    HW1 2247   1.233   3.335   3.432
  668SOL    HW2 2248   1.175   3.386   3.288
  669SOL     OW 2249   0.321   2.805   2.104
  669SOL    HW1 2250   0.403   2.844   2.062
  669SOL    HW2 2251   0.294   2.723   2.055
  670SOL     OW 2252   1.458   2.597   2.590
  670SOL    HW1 2253   1.453   2.532   2.665
  670SOL    HW2 2254   1.538   2.656   2.603
  671SOL     OW 2255   1.111   3.638   2.099
  671SOL    HW1 2256   1.051   3.576   2.149
  671SOL    HW2 2257   1.142   3.594   2.014
  672SOL     OW 2258   0.202   2.147   3.360
  672SOL    HW1 2259   0.122   2.207   3.347
  672SOL    HW2 2260   0.192   2.098   3.446
  673SOL     OW 2261   1.632   3.239   1.943
  673SOL    HW1 2262   1.600   3.333   1.933
  673SOL    HW2 2263   1.556   3.176   1.931
  674SOL     OW 2264   0.464   3.605   2.185
  674SOL    HW1 2265   0.497   3.644   2.271
  674SOL    HW2 2266   0.540   3.598   2.120
  675SOL     OW 2267   1.400   1.969   2.288
  675SOL    HW1 2268   1.376   1.932   2.198
  675SOL    HW2 2269   1.499   1.985   2.292
  676SOL     OW 2270   0.249   3.647   3.103
  676SOL    HW1 2271   0.306   3.582   3.153
  676SOL    HW2 2272   0.233   3.614   3.010
  677SOL     OW 2273   0.940   3.560   2.766
  677SOL    HW1 2274   1.020   3.503   2.787
  677SOL    HW2 2275   0.891   3.520   2.689
  678SOL     OW 2276   0.382   2.562   2.342
  678SOL    HW1 2277   0.427   2.472   2.339
  678SOL    HW2 2278   0.288   2.551   2.375
  679SOL     OW 2279   0.614   1.984   1.979
  679SOL    HW1 2280   0.712   1.962   1.986
  679SOL    HW2 2281   0.583   1.967   1.886
  680SOL     OW 2282   0.888   3.376   3.057
  680SOL    HW1 2283   0.865   3.351   2.963
  680SOL    HW2 2284   0.949   3.307   3.096
  681SOL     OW 2285   1.351   2.452   3.295
  681SOL    HW1 2286   1.379   2.409   3.380
  681SOL    HW2 2287   1.376   2.548   3.296
  682SOL     OW 2288   0.803   3.264   2.786
  682SOL    HW1 2289   0.893   3.278   2.744
  682SOL    HW2 2290   0.732   3.266   2.715
  683SOL     OW 2291   0.922   2.365   2.761
  683SOL    HW1 2292   0.897   2.356   2.665
  683SOL    HW2 2293   0.970   2.283   2.792
  684SOL     OW 2294   0.539   1.926   2.374
  684SOL    HW1 2295   0.458   1.927   2.432
  684SOL    HW2 2296   0.542   2.009   2.319
  685SOL     OW 2297   1.434   3.050   1.903
  685SOL    HW1 2298   1.466   2.974   1.960
  685SOL    HW2 2299   1.342   3.077   1.933
  686SOL     OW 2300   0.297   1.897   2.033
  686SOL    HW1 2301   0.346   1.981   2.012
  686SOL    HW2 2302   0.359   1.832   2.078
  687SOL     OW 2303   0.935   2.098   2.342
  687SOL    HW1 2304   0.887   2.139   2.264
  687SOL    HW2 2305   1.034   2.096   2.323
  688SOL     OW 2306   1.076   2.545   3.326
  688SOL    HW1 2307   0.996   2.484   3.329
  688SOL    HW2 2308   1.157   2.492   3.302
  689SOL     OW 2309   1.227   3.432   2.655
  689SOL    HW1 2310   1.248   3.506   2.590
  689SOL    HW2 2311   1.295   3.432   2.728
  690SOL     OW 2312   0.459   3.014   2.603
  690SOL    HW1 2313   0.388   2.987   2.668
  690SOL    HW2 2314   0.433   2.986   2.510
  691SOL     OW 2315   1.271   3.659   2.453
  691SOL    HW1 2316   1.315   3.723   2.389
  691SOL    HW2 2317   1.221   3.711   2.523
  692SOL     OW 2318   1.032   2.411   1.878
  692SOL    HW1 2319   0.991   2.493   1.839
  692SOL    HW2 2320   1.096   2.437   1.951
  693SOL     OW 2321   0.078   2.418   3.248
  693SOL    HW1 2322   0.170   2.417   3.207
  693SOL    HW2 2323   0.072   2.492   3.315
  694SOL     OW 2324   0.561   2.084   3.009
  694SOL    HW1 2325   0.599   2.000   3.046
  694SOL    HW2 2326   0.473   2.103   3.053
  695SOL     OW 2327   0.866   2.316   2.504
  695SOL    HW1 2328   0.834   2.388   2.442
  695SOL    HW2 2329   0.890   2.235   2.451
  696SOL     OW 2330   1.017   1.901   2.615
  696SOL    HW1 2331   0.945   1.906   2.546
  696SOL    HW2 2332   0.993   1.832   2.684
  697SOL     OW 2333   1.429   3.035   2.729
  697SOL    HW1 2334   1.374   2.951   2.722
  697SOL    HW2 2335   1.455   3.064   2.637
  698SOL     OW 2336   1.466   2.452   2.854
  698SOL    HW1 2337   1.436   2.357   2.861
  698SOL    HW2 2338   1.539   2.468   2.920
  699SOL     OW 2339   1.857   2.695   2.239
  699SOL    HW1 2340   1.899   2.631   2.303
  699SOL    HW2 2341   1.819   2.644   2.161
  700SOL     OW 2342   0.488   3.247   2.036
  700SOL    HW1 2343   0.401   3.232   2.083
  700SOL    HW2 2344   0.471   3.273   1.941
  701SOL     OW 2345   1.664   3.142   2.519
  701SOL    HW1 2346   1.763   3.150   2.533
  701SOL    HW2 2347   1.619   3.226   2.550
  702SOL     OW 2348   1.390   2.437   1.940
  702SOL    HW1 2349   1.336   2.416   2.021
  702SOL    HW2 2350   1.481   2.396   1.949
  703SOL     OW 2351   0.527   2.118   2.190
  703SOL    HW1 2352   0.554   2.059   2.115
  703SOL    HW2 2353   0.527   2.213   2.159
  704SOL     OW 2354   1.064   3.209   3.202
  704SOL    HW1 2355   0.984   3.186   3.257
  704SOL    HW2 2356   1.147   3.183   3.251
  705SOL     OW 2357   1.111   3.057   2.962
  705SOL    HW1 2358   1.071   3.101   3.043
  705SOL    HW2 2359   1.070   3.094   2.879
  706SOL     OW 2360   1.638   2.961   2.941
  706SOL    HW1 2361   1.643   3.042   3.000
  706SOL    HW2 2362   1.552   2.963   2.890
  707SOL     OW 2363   0.915   1.951   3.264
  707SOL    HW1 2364   0.940   1.931   3.169
  707SOL    HW2 2365   0.987   2.007   3.306
  708SOL     OW 2366   0.705   2.912   2.230
  708SOL    HW1 2367   0.691   2.919   2.329
  708SOL    HW2 2368   0.789   2.861   2.212
  709SOL     OW 2369   0.410   2.675   3.113
  709SOL    HW1 2370   0.496   2.687   3.163
  709SOL    HW2 2371   0.368   2.588   3.140
  710SOL     OW 2372   1.274   2.248   3.124
  710SOL    HW1 2373   1.295   2.322   3.188
  710SOL    HW2 2374   1.185   2.265   3.081
  711SOL     OW 2375   0.064   3.426   3.193
  711SOL    HW1 2376   0.018   3.508   3.159
  711SOL    HW2 2377   0.162   3.445   3.202
  712SOL     OW 2378   0.367   2.962   2.363
  712SOL    HW1 2379   0.360   3.045   2.307
  712SOL    HW2 2380   0.371   2.882   2.303
  713SOL     OW 2381   0.566   2.399   2.727
  713SOL    HW1 2382   0.578   2.465   2.653
  713SOL    HW2 2383   0.612   2.433   2.810
  714SOL     OW 2384   1.252   3.210   2.250
  714SOL    HW1 2385   1.302   3.287   2.290
  714SOL    HW2 2386   1.157   3.212   2.282
  715SOL     OW 2387   1.272   3.307   3.004
  715SOL    HW1 2388   1.319   3.320   3.091
  715SOL    HW2 2389   1.206   3.233   3.013
  716SOL     OW 2390   1.582   2.501   2.334
  716SOL    HW1 2391   1.551   2.562   2.407
  716SOL    HW2 2392   1.632   2.553   2.265
  717SOL     OW 2393   0.354   3.372   3.191
  717SOL    HW1 2394   0.333   3.328   3.104
  717SOL    HW2 2395   0.451   3.398   3.194
  718SOL     OW 2396   0.573   2.732   2.891
  718SOL    HW1 2397   0.617   2.821   2.882
  718SOL    HW2 2398   0.510   2.732   2.968
  719SOL     OW 2399   1.360   2.724   2.907
  719SOL    HW1 2400   1.285   2.724   2.841
  719SOL    HW2 2401   1.397   2.632   2.916
  720SOL     OW 2402   1.209   2.387   2.137
  720SOL    HW1 2403   1.222   2.303   2.191
  720SOL    HW2 2404   1.180   2.461   2.197
  721SOL     OW 2405   0.307   2.075   3.093
  721SOL    HW1 2406   0.284   2.112   3.183
  721SOL    HW2 2407   0.277   1.980   3.087
  722SOL     OW 2408   0.037   3.172   3.144
  722SOL    HW1 2409   0.090   3.123   3.212
  722SOL    HW2 2410   0.059   3.270   3.149
  723SOL     OW 2411   0.732   2.496   2.926
  723SOL    HW1 2412   0.791   2.470   2.850
  723SOL    HW2 2413   0.704   2.592   2.915
  724SOL     OW 2414   0.307   1.925   2.480
  724SOL    HW1 2415   0.296   2.019   2.513
  724SOL    HW2 2416   0.302   1.862   2.557
  725SOL     OW 2417   1.622   2.229   2.236
  725SOL    HW1 2418   1.624   2.153   2.300
  725SOL    HW2 2419   1.574   2.306   2.276
  726SOL     OW 2420   1.023   2.628   2.828
  726SOL    HW1 2421   1.038   2.649   2.924
  726SOL    HW2 2422   0.993   2.533   2.819
  727SOL     OW 2423   1.540   2.136   1.987
  727SOL    HW1 2424   1.479   2.061   2.010
  727SOL    HW2 2425   1.562   2.188   2.070
  728SOL     OW 2426   1.303   2.700   1.904
  728SOL    HW1 2427   1.337   2.607   1.919
  728SOL    HW2 2428   1.321   2.727   1.809
  729SOL     OW 2429   1.068   3.195   2.711
  729SOL    HW1 2430   1.075   3.111   2.656
  729SOL    HW2 2431   1.130   3.264   2.675
  730SOL     OW 2432   0.319   2.672   2.811
  730SOL    HW1 2433   0.412   2.708   2.816
  730SOL    HW2 2434   0.313   2.587   2.863
  731SOL     OW 2435   0.339   2.371   2.868
  731SOL    HW1 2436   0.287   2.288   2.851
  731SOL    HW2 2437   0.416   2.376   2.804
  732SOL     OW 2438   1.160   2.069   3.339
  732SOL    HW1 2439   1.160   2.133   3.416
  732SOL    HW2 2440   1.188   2.117   3.256
  733SOL     OW 2441   0.008   3.188   2.062
  733SOL    HW1 2442  -0.085   3.209   2.031
  733SOL    HW2 2443   0.018   3.089   2.075
  734SOL     OW 2444   0.088   3.663   2.789
  734SOL    HW1 2445   0.046   3.577   2.762
  734SOL    HW2 2446   0.182   3.666   2.755
  735SOL     OW 2447   0.504   3.430   2.772
  735SOL    HW1 2448   0.570   3.504   2.781
  735SOL    HW2 2449   0.548   3.351   2.730
  736SOL     OW 2450   1.002   2.658   3.100
  736SOL    HW1 2451   1.043   2.626   3.186
  736SOL    HW2 2452   0.906   2.631   3.097
  737SOL     OW 2453   0.040   2.406   2.976
  737SOL    HW1 2454   0.125   2.373   2.935
  737SOL    HW2 2455   0.053   2.421   3.074
  738SOL     OW 2456   0.815   2.434   2.187
  738SOL    HW1 2457   0.822   2.345   2.141
  738SOL    HW2 2458   0.721   2.468   2.179
  739SOL     OW 2459   1.657   2.466   3.068
  739SOL    HW1 2460   1.619   2.397   3.130
  739SOL    HW2 2461   1.739   2.430   3.024
  740SOL     OW 2462   0.671   2.326   3.131
  740SOL    HW1 2463   0.637   2.237   3.101
  740SOL    HW2 2464   0.697   2.380   3.051
  741SOL     OW 2465   0.930   3.540   3.327
  741SOL    HW1 2466   0.906   3.522   3.232
  741SOL    HW2 2467   0.960   3.634   3.337
  742SOL     OW 2468   0.473   2.362   2.053
  742SOL    HW1 2469   0.534   2.442   2.057
  742SOL    HW2 2470   0.378   2.393   2.060
  743SOL     OW 2471   0.159   2.999   3.328
  743SOL    HW1 2472   0.181   2.938   3.404
  743SOL    HW2 2473   0.169   2.950   3.242
  744SOL     OW 2474   1.347   2.921   3.096
  744SOL    HW1 2475   1.371   2.858   3.022
  744SOL    HW2 2476   1.257   2.961   3.078
  745SOL     OW 2477   1.302   2.717   2.171
  745SOL    HW1 2478   1.216   2.686   2.213
  745SOL    HW2 2479   1.298   2.703   2.072
  746SOL     OW 2480   1.759   3.609   3.016
  746SOL    HW1 2481   1.820   3.639   2.943
  746SOL    HW2 2482   1.721   3.520   2.994
  747SOL     OW 2483   1.252   3.593   2.990
  747SOL    HW1 2484   1.336   3.598   2.936
  747SOL    HW2 2485   1.229   3.497   3.008
  748SOL     OW 2486   0.083   3.120   2.884
  748SOL    HW1 2487   0.078   3.119   2.984
  748SOL    HW2 2488   0.000   3.079   2.846
  749SOL     OW 2489   1.726   1.997   2.385
  749SOL    HW1 2490   1.799   1.980   2.318
  749SOL    HW2 2491   1.695   1.910   2.423
  750SOL     OW 2492   1.388   3.435   2.339
  750SOL    HW1 2493   1.455   3.447   2.265
  750SOL    HW2 2494   1.348   3.524   2.362
  751SOL     OW 2495   1.280   2.789   2.534
  751SOL    HW1 2496   1.340   2.708   2.536
  751SOL    HW2 2497   1.320   2.858   2.474
  752SOL     OW 2498   0.830   3.135   3.284
  752SOL    HW1 2499   0.825   3.168   3.379
  752SOL    HW2 2500   0.744   3.154   3.238
  753SOL     OW 2501   0.672   3.478   2.016
  753SOL    HW1 2502   0.681   3.488   1.917
  753SOL    HW2 2503   0.632   3.389   2.037
  754SOL     OW 2504   1.650   3.582   3.256
  754SOL    HW1 2505   1.703   3.592   3.172
  754SOL    HW2 2506   1.623   3.672   3.290
  755SOL     OW 2507   1.841   2.037   2.825
  755SOL    HW1 2508   1.880   1.952   2.789
  755SOL    HW2 2509   1.743   2.039   2.806
  756SOL     OW 2510   0.263   2.188   2.582
  756SOL    HW1 2511   0.184   2.239   2.548
  756SOL    HW2 2512   0.254   2.173   2.680
  757SOL     OW 2513   1.194   3.474   1.893
  757SOL    HW1 2514   1.200   3.381   1.930
  757SOL    HW2 2515   1.135   3.474   1.813
  758SOL     OW 2516   0.822   2.864   3.234
  758SOL    HW1 2517   0.862   2.863   3.142
  758SOL    HW2 2518   0.832   2.956   3.274
  759SOL     OW 2519   0.916   2.772   2.153
  759SOL    HW1 2520   0.979   2.810   2.085
  759SOL    HW2 2521   0.956   2.689   2.192
  760SOL     OW 2522   1.504   3.469   1.906
  760SOL    HW1 2523   1.412   3.506   1.913
  760SOL    HW2 2524   1.542   3.489   1.816
  761SOL     OW 2525   0.372   3.150   3.352
  761SOL    HW1 2526   0.359   3.243   3.318
  761SOL    HW2 2527   0.288   3.098   3.339
  762SOL     OW 2528   1.614   3.154   3.151
  762SOL    HW1 2529   1.674   3.157   3.231
  762SOL    HW2 2530   1.539   3.218   3.164
  763SOL     OW 2531   1.039   2.960   2.558
  763SOL    HW1 2532   0.969   2.913   2.612
  763SOL    HW2 2533   1.098   2.892   2.515
  764SOL     OW 2534   1.014   2.098   2.833
  764SOL    HW1 2535   1.006   2.062   2.740
  764SOL    HW2 2536   1.012   2.022   2.898
  765SOL     OW 2537   0.590   3.349   2.353
  765SOL    HW1 2538   0.632   3.291   2.283
  765SOL    HW2 2539   0.546   3.428   2.309
  766SOL     OW 2540   1.709   2.247   3.243
  766SOL    HW1 2541   1.782   2.316   3.247
  766SOL    HW2 2542   1.737   2.172   3.184
  767SOL     OW 2543   0.255   3.210   2.152
  767SOL    HW1 2544   0.159   3.211   2.125
  767SOL    HW2 2545   0.267   3.263   2.236
  768SOL     OW 2546   0.672   2.065   3.351
  768SOL    HW1 2547   0.762   2.049   3.311
  768SOL    HW2 2548   0.680   2.070   3.450
  769SOL     OW 2549   0.075   2.207   1.895
  769SOL    HW1 2550  -0.017   2.179   1.866
  769SOL    HW2 2551   0.106   2.284   1.839
  770SOL     OW 2552   1.440   2.718   3.260
  770SOL    HW1 2553   1.383   2.770   3.197
  770SOL    HW2 2554   1.536   2.730   3.236
  771SOL     OW 2555   0.072   2.028   2.180
  771SOL    HW1 2556   0.055   2.111   2.126
  771SOL    HW2 2557   0.162   1.991   2.158
  772SOL     OW 2558   1.183   3.197   1.981
  772SOL    HW1 2559   1.084   3.186   1.983
  772SOL    HW2 2560   1.217   3.212   2.074
  773SOL     OW 2561   0.613   2.704   3.293
  773SOL    HW1 2562   0.669   2.785   3.276
  773SOL    HW2 2563   0.672   2.624   3.296
  774SOL     OW 2564   1.493   3.629   2.821
  774SOL    HW1 2565   1.526   3.693   2.752
  774SOL    HW2 2566   1.559   3.623   2.896
  775SOL     OW 2567   1.674   2.745   3.116
  775SOL    HW1 2568   1.647   2.656   3.079
  775SOL    HW2 2569   1.675   2.813   3.043
  776SOL     OW 2570   1.225   2.187   2.311
  776SOL    HW1 2571   1.290   2.113   2.300
  776SOL    HW2 2572   1.245   2.237   2.395
  777SOL     OW 2573   0.594   2.607   2.514
  777SOL    HW1 2574   0.644   2.692   2.495
  777SOL    HW2 2575   0.506   2.609   2.466
  778SOL     OW 2576   1.730   2.796   3.379
  778SOL    HW1 2577   1.768   2.887   3.394
  778SOL    HW2 2578   1.722   2.779   3.280
  779SOL     OW 2579   0.859   3.236   1.878
  779SOL    HW1 2580   0.813   3.251   1.966
  779SOL    HW2 2581   0.903   3.321   1.848
  780SOL     OW 2582   0.661   3.652   2.815
  780SOL    HW1 2583   0.615   3.740   2.802
  780SOL    HW2 2584   0.760   3.664   2.808
  781SOL     OW 2585   0.859   2.818   2.723
  781SOL    HW1 2586   0.913   2.749   2.771
  781SOL    HW2 2587   0.827   2.887   2.789
  782SOL     OW 2588   1.083   2.846   1.949
  782SOL    HW1 2589   1.060   2.899   1.867
  782SOL    HW2 2590   1.164   2.790   1.930
  783SOL     OW 2591   1.861   3.431   2.713
  783SOL    HW1 2592   1.790   3.419   2.643
  783SOL    HW2 2593   1.862   3.352   2.773
  784SOL     OW 2594   0.079   3.102   2.515
  784SOL    HW1 2595   0.078   3.055   2.603
  784SOL    HW2 2596   0.161   3.074   2.464
  785SOL     OW 2597   1.824   2.054   3.089
  785SOL    HW1 2598   1.820   1.964   3.133
  785SOL    HW2 2599   1.827   2.043   2.990
  786SOL     OW 2600   0.428   2.286   2.382
  786SOL    HW1 2601   0.458   2.214   2.320
  786SOL    HW2 2602   0.389   2.246   2.465
  787SOL     OW 2603   1.705   3.349   2.966
  787SOL    HW1 2604   1.612   3.324   2.939
  787SOL    HW2 2605   1.731   3.299   3.048
  788SOL     OW 2606   0.317   2.409   3.142
  788SOL    HW1 2607   0.355   2.350   3.214
  788SOL    HW2 2608   0.357   2.383   3.054
  789SOL     OW 2609   0.812   3.448   2.549
  789SOL    HW1 2610   0.844   3.458   2.455
  789SOL    HW2 2611   0.733   3.386   2.551
  790SOL     OW 2612   1.424   2.076   2.974
  790SOL    HW1 2613   1.476   2.011   3.029
  790SOL    HW2 2614   1.375   2.139   3.035
  791SOL     OW 2615   1.001   1.896   3.016
  791SOL    HW1 2616   0.938   1.824   2.985
  791SOL    HW2 2617   1.094   1.860   3.016
  792SOL     OW 2618   0.770   3.192   2.163
  792SOL    HW1 2619   0.724   3.105   2.180
  792SOL    HW2 2620   0.861   3.189   2.204
  793SOL     OW 2621   0.618   3.429   3.146
  793SOL    HW1 2622   0.613   3.511   3.203
  793SOL    HW2 2623   0.707   3.426   3.101
  794SOL     OW 2624   1.352   1.914   2.030
  794SOL    HW1 2625   1.387   1.873   1.946
  794SOL    HW2 2626   1.262   1.876   2.050
  795SOL     OW 2627   1.300   2.315   2.553
  795SOL    HW1 2628   1.241   2.395   2.557
  795SOL    HW2 2629   1.315   2.280   2.646
  796SOL     OW 2630   1.593   2.083   2.744
  796SOL    HW1 2631   1.509   2.082   2.798
  796SOL    HW2 2632   1.595   2.166   2.688
  797SOL     OW 2633   0.039   2.939   2.162
  797SOL    HW1 2634   0.138   2.928   2.153
  797SOL    HW2 2635  -0.001   2.853   2.194
  798SOL     OW 2636   0.875   3.508   2.199
  798SOL    HW1 2637   0.798   3.473   2.145
  798SOL    HW2 2638   0.843   3.579   2.261
  799SOL     OW 2639   0.225   3.999   0.996
  799SOL    HW1 2640   0.260   3.982   1.088
  799SOL    HW2 2641   0.137   3.954   0.984
  800SOL     OW 2642   0.019   4.092   0.647
  800SOL    HW1 2643  -0.063   4.135   0.686
  800SOL    HW2 2644  -0.009   4.019   0.584
  801SOL     OW 2645   1.755   4.331   0.231
  801SOL    HW1 2646   1.743   4.318   0.132
  801SOL    HW2 2647   1.725   4.250   0.280
  802SOL     OW 2648   0.438   4.116   1.499
  802SOL    HW1 2649   0.520   4.060   1.508
  802SOL    HW2 2650   0.357   4.058   1.503
  803SOL     OW 2651   1.603   4.171   0.737
  803SOL    HW1 2652   1.529   4.217   0.687
  803SOL    HW2 2653   1.654   4.239   0.790
  804SOL     OW 2654   1.594   3.838   1.480
  804SOL    HW1 2655   1.576   3.905   1.408
  804SOL    HW2 2656   1.591   3.884   1.569
  805SOL     OW 2657   0.122   4.367   0.563
  805SOL    HW1 2658   0.077   4.279   0.580
  805SOL    HW2 2659   0.121   4.421   0.647
  806SOL     OW 2660   0.809   3.728   0.502
  806SOL    HW1 2661   0.849   3.819   0.493
  806SOL    HW2 2662   0.709   3.736   0.508
  807SOL     OW 2663   0.317   3.975   1.801
  807SOL    HW1 2664   0.388   4.046   1.807
  807SOL    HW2 2665   0.229   4.014   1.829
  808SOL     OW 2666   1.281   4.069   0.944
  808SOL    HW1 2667   1.195   4.019   0.931
  808SOL    HW2 2668   1.343   4.015   1.000
  809SOL     OW 2669   0.807   4.329   1.465
  809SOL    HW1 2670   0.760   4.326   1.554
  809SOL    HW2 2671   0.756   4.274   1.399
  810SOL     OW 2672   1.394   4.193   1.674
  810SOL    HW1 2673   1.374   4.236   1.762
  810SOL    HW2 2674   1.472   4.131   1.683
  811SOL     OW 2675   0.991   4.134   1.242
  811SOL    HW1 2676   0.914   4.168   1.296
  811SOL    HW2 2677   0.957   4.083   1.163
  812SOL     OW 2678   1.041   4.425   0.429
  812SOL    HW1 2679   1.067   4.421   0.525
  812SOL    HW2 2680   0.956   4.374   0.415
  813SOL     OW 2681   0.076   4.535   0.789
  813SOL    HW1 2682   0.175   4.523   0.798
  813SOL    HW2 2683   0.052   4.630   0.810
  814SOL     OW 2684   0.865   4.072   0.195
  814SOL    HW1 2685   0.924   4.135   0.146
  814SOL    HW2 2686   0.884   3.978   0.166
  815SOL     OW 2687   1.719   4.309   1.831
  815SOL    HW1 2688   1.693   4.398   1.795
  815SOL    HW2 2689   1.717   4.241   1.758
  816SOL     OW 2690   0.550   3.920   0.885
  816SOL    HW1 2691   0.545   3.915   0.985
  816SOL    HW2 2692   0.552   4.016   0.856
  817SOL     OW 2693   1.458   4.459   0.728
  817SOL    HW1 2694   1.453   4.394   0.803
  817SOL    HW2 2695   1.538   4.518   0.741
  818SOL     OW 2696   0.202   4.009   1.498
  818SOL    HW1 2697   0.122   4.069   1.485
  818SOL    HW2 2698   0.192   3.960   1.584
  819SOL     OW 2699   1.400   3.831   0.426
  819SOL    HW1 2700   1.376   3.794   0.336
  819SOL    HW2 2701   1.499   3.847   0.430
  820SOL     OW 2702   1.547   3.946   1.729
  820SOL    HW1 2703   1.542   3.983   1.821
  820SOL    HW2 2704   1.475   3.877   1.717
  821SOL     OW 2705   0.614   3.846   0.117
  821SOL    HW1 2706   0.712   3.824   0.124
  821SOL    HW2 2707   0.583   3.829   0.024
  822SOL     OW 2708   0.781   3.988   1.749
  822SOL    HW1 2709   0.848   3.927   1.792
  822SOL    HW2 2710   0.708   4.007   1.814
  823SOL     OW 2711   1.351   4.314   1.433
  823SOL    HW1 2712   1.379   4.271   1.518
  823SOL    HW2 2713   1.376   4.410   1.434
  824SOL     OW 2714   0.922   4.227   0.899
  824SOL    HW1 2715   0.897   4.218   0.803
  824SOL    HW2 2716   0.970   4.145   0.930
  825SOL     OW 2717   0.539   3.788   0.512
  825SOL    HW1 2718   0.458   3.789   0.570
  825SOL    HW2 2719   0.542   3.871   0.457
  826SOL     OW 2720   0.297   3.759   0.171
  826SOL    HW1 2721   0.346   3.843   0.150
  826SOL    HW2 2722   0.359   3.694   0.216
  827SOL     OW 2723   0.935   3.960   0.480
  827SOL    HW1 2724   0.887   4.001   0.402
  827SOL    HW2 2725   1.034   3.958   0.461
  828SOL     OW 2726   1.076   4.407   1.464
  828SOL    HW1 2727   0.996   4.346   1.467
  828SOL    HW2 2728   1.157   4.354   1.440
  829SOL     OW 2729   1.032   4.273   0.016
  829SOL    HW1 2730   0.991   4.355  -0.023
  829SOL    HW2 2731   1.096   4.299   0.089
  830SOL     OW 2732   0.078   4.280   1.386
  830SOL    HW1 2733   0.170   4.279   1.345
  830SOL    HW2 2734   0.072   4.354   1.453
  831SOL     OW 2735   0.561   3.946   1.147
  831SOL    HW1 2736   0.599   3.862   1.184
  831SOL    HW2 2737   0.473   3.965   1.191
  832SOL     OW 2738   0.866   4.178   0.642
  832SOL    HW1 2739   0.834   4.250   0.580
  832SOL    HW2 2740   0.890   4.097   0.589
  833SOL     OW 2741   1.017   3.763   0.753
  833SOL    HW1 2742   0.945   3.768   0.684
  833SOL    HW2 2743   0.993   3.694   0.822
  834SOL     OW 2744   1.466   4.314   0.992
  834SOL    HW1 2745   1.436   4.219   0.999
  834SOL    HW2 2746   1.539   4.330   1.058
  835SOL     OW 2747   0.527   3.980   0.328
  835SOL    HW1 2748   0.554   3.921   0.253
  835SOL    HW2 2749   0.527   4.075   0.297
  836SOL     OW 2750   0.915   3.813   1.402
  836SOL    HW1 2751   0.940   3.793   1.307
  836SOL    HW2 2752   0.987   3.869   1.444
  837SOL     OW 2753   1.274   4.110   1.262
  837SOL    HW1 2754   1.295   4.184   1.326
  837SOL    HW2 2755   1.185   4.127   1.219
  838SOL     OW 2756   0.566   4.261   0.865
  838SOL    HW1 2757   0.578   4.327   0.791
  838SOL    HW2 2758   0.612   4.295   0.948
  839SOL     OW 2759   1.582   4.363   0.472
  839SOL    HW1 2760   1.551   4.424   0.545
  839SOL    HW2 2761   1.632   4.415   0.403
  840SOL     OW 2762   1.013   3.829   1.770
  840SOL    HW1 2763   1.019   3.914   1.718
  840SOL    HW2 2764   1.045   3.753   1.713
  841SOL     OW 2765   0.504   3.774   1.740
  841SOL    HW1 2766   0.462   3.717   1.670
  841SOL    HW2 2767   0.438   3.843   1.772
  842SOL     OW 2768   1.209   4.249   0.275
  842SOL    HW1 2769   1.222   4.165   0.329
  842SOL    HW2 2770   1.180   4.323   0.335
  843SOL     OW 2771   0.307   3.937   1.231
  843SOL    HW1 2772   0.284   3.974   1.321
  843SOL    HW2 2773   0.277   3.842   1.225
  844SOL     OW 2774   0.732   4.358   1.064
  844SOL    HW1 2775   0.791   4.332   0.988
  844SOL    HW2 2776   0.704   4.454   1.053
  845SOL     OW 2777   0.307   3.787   0.618
  845SOL    HW1 2778   0.296   3.881   0.651
  845SOL    HW2 2779   0.302   3.724   0.695
  846SOL     OW 2780   1.622   4.091   0.374
  846SOL    HW1 2781   1.624   4.015   0.438
  846SOL    HW2 2782   1.574   4.168   0.414
  847SOL     OW 2783   1.540   3.998   0.125
  847SOL    HW1 2784   1.479   3.923   0.148
  847SOL    HW2 2785   1.562   4.050   0.208
  848SOL     OW 2786   0.339   4.233   1.006
  848SOL    HW1 2787   0.287   4.150   0.989
  848SOL    HW2 2788   0.416   4.238   0.942
  849SOL     OW 2789   1.138   4.104   1.678
  849SOL    HW1 2790   1.093   4.167   1.742
  849SOL    HW2 2791   1.231   4.135   1.661
  850SOL     OW 2792   1.160   3.931   1.477
  850SOL    HW1 2793   1.160   3.995   1.554
  850SOL    HW2 2794   1.188   3.979   1.394
  851SOL     OW 2795   0.040   4.268   1.114
  851SOL    HW1 2796   0.125   4.235   1.073
  851SOL    HW2 2797   0.053   4.283   1.212
  852SOL     OW 2798   0.189   4.244   1.722
  852SOL    HW1 2799   0.248   4.204   1.652
  852SOL    HW2 2800   0.131   4.315   1.681
  853SOL     OW 2801   0.815   4.296   0.325
  853SOL    HW1 2802   0.822   4.207   0.279
  853SOL    HW2 2803   0.721   4.330   0.317
  854SOL     OW 2804   1.657   4.328   1.206
  854SOL    HW1 2805   1.619   4.259   1.268
  854SOL    HW2 2806   1.739   4.292   1.162
  855SOL     OW 2807   0.671   4.188   1.269
  855SOL    HW1 2808   0.637   4.099   1.239
  855SOL    HW2 2809   0.697   4.242   1.189
  856SOL     OW 2810   0.903   3.810   0.133
  856SOL    HW1 2811   0.954   3.811   0.047
  856SOL    HW2 2812   0.959   3.768   0.204
  857SOL     OW 2813   1.726   3.859   0.523
  857SOL    HW1 2814   1.799   3.842   0.456
  857SOL    HW2 2815   1.695   3.772   0.561
  858SOL     OW 2816   1.841   3.899   0.963
  858SOL    HW1 2817   1.880   3.814   0.927
  858SOL    HW2 2818   1.743   3.901   0.944
  859SOL     OW 2819   0.263   4.050   0.720
  859SOL    HW1 2820   0.184   4.101   0.686
  859SOL    HW2 2821   0.254   4.035   0.818
  860SOL     OW 2822   1.014   3.960   0.971
  860SOL    HW1 2823   1.006   3.924   0.878
  860SOL    HW2 2824   1.012   3.884   1.036
  861SOL     OW 2825   1.709   4.109   1.381
  861SOL    HW1 2826   1.782   4.178   1.385
  861SOL    HW2 2827   1.737   4.034   1.322
  862SOL     OW 2828   0.672   3.927   1.489
  862SOL    HW1 2829   0.762   3.911   1.449
  862SOL    HW2 2830   0.680   3.932   1.588
  863SOL     OW 2831   0.075   4.069   0.033
  863SOL    HW1 2832  -0.017   4.041   0.004
  863SOL    HW2 2833   0.106   4.146  -0.023
  864SOL     OW 2834   0.072   3.890   0.318
  864SOL    HW1 2835   0.055   3.973   0.264
  864SOL    HW2 2836   0.162   3.853   0.296
  865SOL     OW 2837   0.716   4.289   1.708
  865SOL    HW1 2838   0.735   4.354   1.782
  865SOL    HW2 2839   0.776   4.209   1.717
  866SOL     OW 2840   1.225   4.049   0.449
  866SOL    HW1 2841   1.290   3.975   0.438
  866SOL    HW2 2842   1.245   4.099   0.533
  867SOL     OW 2843   1.777   4.066   1.642
  867SOL    HW1 2844   1.760   4.097   1.548
  867SOL    HW2 2845   1.693   4.029   1.680
  868SOL     OW 2846   1.083   4.708   0.087
  868SOL    HW1 2847   1.060   4.761   0.005
  868SOL    HW2 2848   1.164   4.652   0.068
  869SOL     OW 2849   1.824   3.916   1.227
  869SOL    HW1 2850   1.820   3.826   1.271
  869SOL    HW2 2851   1.827   3.905   1.128
  870SOL     OW 2852   0.428   4.148   0.520
  870SOL    HW1 2853   0.458   4.076   0.458
  870SOL    HW2 2854   0.389   4.108   0.603
  871SOL     OW 2855   0.317   4.271   1.280
  871SOL    HW1 2856   0.355   4.212   1.352
  871SOL    HW2 2857   0.357   4.245   1.192
  872SOL     OW 2858   1.424   3.938   1.112
  872SOL    HW1 2859   1.476   3.873   1.167
  872SOL    HW2 2860   1.375   4.001   1.173
  873SOL     OW 2861   1.001   3.758   1.154
  873SOL    HW1 2862   0.938   3.686   1.123
  873SOL    HW2 2863   1.094   3.722   1.154
  874SOL     OW 2864   1.352   3.776   0.168
  874SOL    HW1 2865   1.387   3.735   0.084
  874SOL    HW2 2866   1.262   3.738   0.188
  875SOL     OW 2867   1.300   4.177   0.691
  875SOL    HW1 2868   1.241   4.257   0.695
  875SOL    HW2 2869   1.315   4.142   0.784
  876SOL     OW 2870   1.593   3.945   0.882
  876SOL    HW1 2871   1.509   3.944   0.936
  876SOL    HW2 2872   1.595   4.028   0.826
  877SOL     OW 2873   0.225   3.999   2.858
  877SOL    HW1 2874   0.260   3.982   2.950
  877SOL    HW2 2875   0.137   3.954   2.846
  878SOL     OW 2876   0.019   4.092   2.509
  878SOL    HW1 2877  -0.063   4.135   2.548
  878SOL    HW2 2878  -0.009   4.019   2.446
  879SOL     OW 2879   1.755   4.331   2.093
  879SOL    HW1 2880   1.743   4.318   1.994
  879SOL    HW2 2881   1.725   4.250   2.142
  880SOL     OW 2882   0.438   4.116   3.361
  880SOL    HW1 2883   0.520   4.060   3.370
  880SOL    HW2 2884   0.357   4.058   3.365
  881SOL     OW 2885   1.603   4.171   2.599
  881SOL    HW1 2886   1.529   4.217   2.549
  881SOL    HW2 2887   1.654   4.239   2.652
  882SOL     OW 2888   1.594   3.838   3.342
  882SOL    HW1 2889   1.576   3.905   3.270
  882SOL    HW2 2890   1.591   3.884   3.431
  883SOL     OW 2891   0.122   4.367   2.425
  883SOL    HW1 2892   0.077   4.279   2.442
  883SOL    HW2 2893   0.121   4.421   2.509
  884SOL     OW 2894   0.809   3.728   2.364
  884SOL    HW1 2895   0.849   3.819   2.355
  884SOL    HW2 2896   0.709   3.736   2.370
  885SOL     OW 2897   1.281   4.069   2.806
  885SOL    HW1 2898   1.195   4.019   2.793
  885SOL    HW2 2899   1.343   4.015   2.862
  886SOL     OW 2900   0.807   4.329   3.327
  886SOL    HW1 2901   0.760   4.326   3.416
  886SOL    HW2 2902   0.756   4.274   3.261
  887SOL     OW 2903   0.991   4.134   3.104
  887SOL    HW1 2904   0.914   4.168   3.158
  887SOL    HW2 2905   0.957   4.083   3.025
  888SOL     OW 2906   1.041   4.425   2.291
  888SOL    HW1 2907   1.067   4.421   2.387
  888SOL    HW2 2908   0.956   4.374   2.277
  889SOL     OW 2909   0.076   4.535   2.651
  889SOL    HW1 2910   0.175   4.523   2.660
  889SOL    HW2 2911   0.052   4.630   2.672
  890SOL     OW 2912   0.865   4.072   2.057
  890SOL    HW1 2913   0.924   4.135   2.008
  890SOL    HW2 2914   0.884   3.978   2.028
  891SOL     OW 2915   0.550   3.920   2.747
  891SOL    HW1 2916   0.545   3.915   2.847
  891SOL    HW2 2917   0.552   4.016   2.718
  892SOL     OW 2918   1.458   4.459   2.590
  892SOL    HW1 2919   1.453   4.394   2.665
  892SOL    HW2 2920   1.538   4.518   2.603
  893SOL     OW 2921   0.202   4.009   3.360
  893SOL    HW1 2922   0.122   4.069   3.347
  893SOL    HW2 2923   0.192   3.960   3.446
  894SOL     OW 2924   1.400   3.831   2.288
  894SOL    HW1 2925   1.376   3.794   2.198
  894SOL    HW2 2926   1.499   3.847   2.292
  895SOL     OW 2927   0.614   3.846   1.979
  895SOL    HW1 2928   0.712   3.824   1.986
  895SOL    HW2 2929   0.583   3.829   1.886
  896SOL     OW 2930   1.351   4.314   3.295
  896SOL    HW1 2931   1.379   4.271   3.380
  896SOL    HW2 2932   1.376   4.410   3.296
  897SOL     OW 2933   0.922   4.227   2.761
  897SOL    HW1 2934   0.897   4.218   2.665
  897SOL    HW2 2935   0.970   4.145   2.792
  898SOL     OW 2936   0.539   3.788   2.374
  898SOL    HW1 2937   0.458   3.789   2.432
  898SOL    HW2 2938   0.542   3.871   2.319
  899SOL     OW 2939   0.297   3.759   2.033
  899SOL    HW1 2940   0.346   3.843   2.012
  899SOL    HW2 2941   0.359   3.694   2.078
  900SOL     OW 2942   0.935   3.960   2.342
  900SOL    HW1 2943   0.887   4.001   2.264
  900SOL    HW2 2944   1.034   3.958   2.323
  901SOL     OW 2945   1.076   4.407   3.326
  901SOL    HW1 2946   0.996   4.346   3.329
  901SOL    HW2 2947   1.157   4.354   3.302
  902SOL     OW 2948   1.032   4.273   1.878
  902SOL    HW1 2949   0.991   4.355   1.839
  902SOL    HW2 2950   1.096   4.299   1.951
  903SOL     OW 2951   0.078   4.280   3.248
  903SOL    HW1 2952   0.170   4.279   3.207
  903SOL    HW2 2953   0.072   4.354   3.315
  904SOL     OW 2954   0.561   3.946   3.009
  904SOL    HW1 2955   0.599   3.862   3.046
  904SOL    HW2 2956   0.473   3.965   3.053
  905SOL     OW 2957   0.866   4.178   2.504
  905SOL    HW1 2958   0.834   4.250   2.442
  905SOL    HW2 2959   0.890   4.097   2.451
  906SOL     OW 2960   1.017   3.763   2.615
  906SOL    HW1 2961   0.945   3.768   2.546
  906SOL    HW2 2962   0.993   3.694   2.684
  907SOL     OW 2963   1.466   4.314   2.854
  907SOL    HW1 2964   1.436   4.219   2.861
  907SOL    HW2 2965   1.539   4.330   2.920
  908SOL     OW 2966   0.527   3.980   2.190
  908SOL    HW1 2967   0.554   3.921   2.115
  908SOL    HW2 2968   0.527   4.075   2.159
  909SOL     OW 2969   0.915   3.813   3.264
  909SOL    HW1 2970   0.940   3.793   3.169
  909SOL    HW2 2971   0.987   3.869   3.306
  910SOL     OW 2972   1.274   4.110   3.124
  910SOL    HW1 2973   1.295   4.184   3.188
  910SOL    HW2 2974   1.185   4.127   3.081
  911SOL     OW 2975   0.566   4.261   2.727
  911SOL    HW1 2976   0.578   4.327   2.653
  911SOL    HW2 2977   0.612   4.295   2.810
  912SOL     OW 2978   1.582   4.363   2.334
  912SOL    HW1 2979   1.551   4.424   2.407
  912SOL    HW2 2980   1.632   4.415   2.265
  913SOL     OW 2981   1.209   4.249   2.137
  913SOL    HW1 2982   1.222   4.165   2.191
  913SOL    HW2 2983   1.180   4.323   2.197
  914SOL     OW 2984   0.307   3.937   3.093
  914SOL    HW1 2985   0.284   3.974   3.183
  914SOL    HW2 2986   0.277   3.842   3.087
  915SOL     OW 2987   0.732   4.358   2.926
  915SOL    HW1 2988   0.791   4.332   2.850
  915SOL    HW2 2989   0.704   4.454   2.915
  916SOL     OW 2990   0.307   3.787   2.480
  916SOL    HW1 2991   0.296   3.881   2.513
  916SOL    HW2 2992   0.302   3.724   2.557
  917SOL     OW 2993   1.622   4.091   2.236
  917SOL    HW1 2994   1.624   4.015   2.300
  917SOL    HW2 2995   1.574   4.168   2.276
  918SOL     OW 2996   1.540   3.998   1.987
  918SOL    HW1 2997   1.479   3.923   2.010
  918SOL    HW2 2998   1.562   4.050   2.070
  919SOL     OW 2999   0.339   4.233   2.868
  919SOL    HW1 3000   0.287   4.150   2.851
  919SOL    HW2 3001   0.416   4.238   2.804
  920SOL     OW 3002   1.160   3.931   3.339
  920SOL    HW1 3003   1.160   3.995   3.416
  920SOL    HW2 3004   1.188   3.979   3.256
  921SOL     OW 3005   0.040   4.268   2.976
  921SOL    HW1 3006   0.125   4.235   2.935
  921SOL    HW2 3007   0.053   4.283   3.074
  922SOL     OW 3008   0.815   4.296   2.187
  922SOL    HW1 3009   0.822   4.207   2.141
  922SOL    HW2 3010   0.721   4.330   2.179
  923SOL     OW 3011   1.657   4.328   3.068
  923SOL    HW1 3012   1.619   4.259   3.130
  923SOL    HW2 3013   1.739   4.292   3.024
  924SOL     OW 3014   0.671   4.188   3.131
  924SOL    HW1 3015   0.637   4.099   3.101
  924SOL    HW2 3016   0.697   4.242   3.051
  925SOL     OW 3017   1.726   3.859   2.385
  925SOL    HW1 3018   1.799   3.842   2.318
  925SOL    HW2 3019   1.695   3.772   2.423
  926SOL     OW 3020   1.841   3.899   2.825
  926SOL    HW1 3021   1.880   3.814   2.789
  926SOL    HW2 3022   1.743   3.901   2.806
  927SOL     OW 3023   0.263   4.050   2.582
  927SOL    HW1 3024   0.184   4.101   2.548
  927SOL    HW2 3025   0.254   4.035   2.680
  928SOL     OW 3026   1.014   3.960   2.833
  928SOL    HW1 3027   1.006   3.924   2.740
  928SOL    HW2 3028   1.012   3.884   2.898
  929SOL     OW 3029   1.709   4.109   3.243
  929SOL    HW1 3030   1.782   4.178   3.247
  929SOL    HW2 3031   1.737   4.034   3.184
  930SOL     OW 3032   0.672   3.927   3.351
  930SOL    HW1 3033   0.762   3.911   3.311
  930SOL    HW2 3034   0.680   3.932   3.450
  931SOL     OW 3035   0.075   4.069   1.895
  931SOL    HW1 3036  -0.017   4.041   1.866
  931SOL    HW2 3037   0.106   4.146   1.839
  932SOL     OW 3038   0.072   3.890   2.180
  932SOL    HW1 3039   0.055   3.973   2.126
  932SOL    HW2 3040   0.162   3.853   2.158
  933SOL     OW 3041   1.225   4.049   2.311
  933SOL    HW1 3042   1.290   3.975   2.300
  933SOL    HW2 3043   1.245   4.099   2.395
  934SOL     OW 3044   1.083   4.708   1.949
  934SOL    HW1 3045   1.060   4.761   1.867
  934SOL    HW2 3046   1.164   4.652   1.930
  935SOL     OW 3047   1.824   3.916   3.089
  935SOL    HW1 3048   1.820   3.826   3.133
  935SOL    HW2 3049   1.827   3.905   2.990
  936SOL     OW 3050   0.428   4.148   2.382
  936SOL    HW1 3051   0.458   4.076   2.320
  936SOL    HW2 3052   0.389   4.108   2.465
  937SOL     OW 3053   0.317   4.271   3.142
  937SOL    HW1 3054   0.355   4.212   3.214
  937SOL    HW2 3055   0.357   4.245   3.054
  938SOL     OW 3056   1.424   3.938   2.974
  938SOL    HW1 3057   1.476   3.873   3.029
  938SOL    HW2 3058   1.375   4.001   3.035
  939SOL     OW 3059   1.001   3.758   3.016
  939SOL    HW1 3060   0.938   3.686   2.985
  939SOL    HW2 3061   1.094   3.722   3.016
  940SOL     OW 3062   1.352   3.776   2.030
  940SOL    HW1 3063   1.387   3.735   1.946
  940SOL    HW2 3064   1.262   3.738   2.050
  941SOL     OW 3065   1.300   4.177   2.553
  941SOL    HW1 3066   1.241   4.257   2.557
  941SOL    HW2 3067   1.315   4.142   2.646
  942SOL     OW 3068   1.593   3.945   2.744
  942SOL    HW1 3069   1.509   3.944   2.798
  942SOL    HW2 3070   1.595   4.028   2.688
  943SOL     OW 3071   2.092   0.628   0.113
  943SOL    HW1 3072   1.999   0.626   0.150
  943SOL    HW2 3073   2.093   0.589   0.021
  944SOL     OW 3074   2.087   0.275   0.996
  944SOL    HW1 3075   2.122   0.258   1.088
  944SOL    HW2 3076   1.999   0.230   0.984
  945SOL     OW 3077   1.881   0.368   0.647
  945SOL    HW1 3078   1.799   0.411   0.686
  945SOL    HW2 3079   1.853   0.295   0.584
  946SOL     OW 3080   2.431   1.275   1.165
  946SOL    HW1 3081   2.338   1.268   1.128
  946SOL    HW2 3082   2.442   1.364   1.209
  947SOL     OW 3083   3.417   1.511   0.703
  947SOL    HW1 3084   3.360   1.495   0.784
  947SOL    HW2 3085   3.358   1.521   0.623
  948SOL     OW 3086   2.997   0.703   0.717
  948SOL    HW1 3087   3.054   0.781   0.692
  948SOL    HW2 3088   2.937   0.729   0.793
  949SOL     OW 3089   2.630   1.144   1.023
  949SOL    HW1 3090   2.552   1.161   1.083
  949SOL    HW2 3091   2.664   1.231   0.987
  950SOL     OW 3092   2.712   0.798   1.823
  950SOL    HW1 3093   2.708   0.874   1.888
  950SOL    HW2 3094   2.734   0.834   1.732
  951SOL     OW 3095   2.547   1.012   0.665
  951SOL    HW1 3096   2.616   0.996   0.735
  951SOL    HW2 3097   2.474   1.069   0.703
  952SOL     OW 3098   2.548   1.161   1.803
  952SOL    HW1 3099   2.608   1.240   1.817
  952SOL    HW2 3100   2.462   1.192   1.762
  953SOL     OW 3101   2.197   1.435   1.061
  953SOL    HW1 3102   2.119   1.404   1.008
  953SOL    HW2 3103   2.255   1.493   1.004
  954SOL     OW 3104   3.322   1.505   1.339
  954SOL    HW1 3105   3.346   1.599   1.365
  954SOL    HW2 3106   3.306   1.451   1.421
  955SOL     OW 3107   2.300   0.392   1.499
  955SOL    HW1 3108   2.382   0.336   1.508
  955SOL    HW2 3109   2.219   0.334   1.503
  956SOL     OW 3110   3.465   0.447   0.737
  956SOL    HW1 3111   3.391   0.493   0.687
  956SOL    HW2 3112   3.516   0.515   0.790
  957SOL     OW 3113   2.093   1.713   0.483
  957SOL    HW1 3114   2.127   1.790   0.537
  957SOL    HW2 3115   2.137   1.713   0.393
  958SOL     OW 3116   2.989   1.341   1.690
  958SOL    HW1 3117   3.036   1.341   1.778
  958SOL    HW2 3118   2.941   1.254   1.679
  959SOL     OW 3119   2.092   1.434   0.538
  959SOL    HW1 3120   2.066   1.530   0.538
  959SOL    HW2 3121   2.021   1.380   0.583
  960SOL     OW 3122   2.102   1.091   0.886
  960SOL    HW1 3123   2.116   1.007   0.938
  960SOL    HW2 3124   2.047   1.155   0.941
  961SOL     OW 3125   2.482   1.786   1.439
  961SOL    HW1 3126   2.390   1.769   1.474
  961SOL    HW2 3127   2.510   1.878   1.465
  962SOL     OW 3128   1.984   0.643   0.563
  962SOL    HW1 3129   1.939   0.555   0.580
  962SOL    HW2 3130   1.983   0.697   0.647
  963SOL     OW 3131   1.889   1.596   0.117
  963SOL    HW1 3132   1.870   1.500   0.138
  963SOL    HW2 3133   1.856   1.654   0.192
  964SOL     OW 3134   3.551   0.922   0.612
  964SOL    HW1 3135   3.646   0.893   0.620
  964SOL    HW2 3136   3.543   0.987   0.537
  965SOL     OW 3137   1.975   0.737   1.597
  965SOL    HW1 3138   2.063   0.724   1.642
  965SOL    HW2 3139   1.962   0.834   1.575
  966SOL     OW 3140   2.475   1.365   0.726
  966SOL    HW1 3141   2.426   1.278   0.735
  966SOL    HW2 3142   2.452   1.408   0.639
  967SOL     OW 3143   3.155   1.228   1.423
  967SOL    HW1 3144   3.192   1.155   1.365
  967SOL    HW2 3145   3.207   1.233   1.508
  968SOL     OW 3146   2.671   0.004   0.502
  968SOL    HW1 3147   2.711   0.095   0.493
  968SOL    HW2 3148   2.571   0.012   0.508
  969SOL     OW 3149   2.059   0.976   1.264
  969SOL    HW1 3150   2.148   0.931   1.250
  969SOL    HW2 3151   1.986   0.911   1.245
  970SOL     OW 3152   3.049   1.792   1.616
  970SOL    HW1 3153   3.073   1.852   1.540
  970SOL    HW2 3154   3.056   1.697   1.586
  971SOL     OW 3155   2.179   0.251   1.801
  971SOL    HW1 3156   2.250   0.322   1.807
  971SOL    HW2 3157   2.091   0.290   1.829
  972SOL     OW 3158   3.328   1.417   0.953
  972SOL    HW1 3159   3.269   1.423   1.033
  972SOL    HW2 3160   3.313   1.329   0.907
  973SOL     OW 3161   3.529   1.714   0.572
  973SOL    HW1 3162   3.488   1.691   0.484
  973SOL    HW2 3163   3.511   1.640   0.637
  974SOL     OW 3164   3.143   0.345   0.944
  974SOL    HW1 3165   3.057   0.295   0.931
  974SOL    HW2 3166   3.205   0.291   1.000
  975SOL     OW 3167   2.669   0.605   1.465
  975SOL    HW1 3168   2.622   0.602   1.554
  975SOL    HW2 3169   2.618   0.550   1.399
  976SOL     OW 3170   3.256   0.469   1.674
  976SOL    HW1 3171   3.236   0.512   1.762
  976SOL    HW2 3172   3.334   0.407   1.683
  977SOL     OW 3173   2.835   0.890   1.572
  977SOL    HW1 3174   2.881   0.806   1.543
  977SOL    HW2 3175   2.779   0.924   1.497
  978SOL     OW 3176   2.853   0.410   1.242
  978SOL    HW1 3177   2.776   0.444   1.296
  978SOL    HW2 3178   2.819   0.359   1.163
  979SOL     OW 3179   2.903   0.701   0.429
  979SOL    HW1 3180   2.929   0.697   0.525
  979SOL    HW2 3181   2.818   0.650   0.415
  980SOL     OW 3182   1.938   0.811   0.789
  980SOL    HW1 3183   2.037   0.799   0.798
  980SOL    HW2 3184   1.914   0.906   0.810
  981SOL     OW 3185   1.992   1.821   1.571
  981SOL    HW1 3186   1.982   1.806   1.670
  981SOL    HW2 3187   1.906   1.857   1.535
  982SOL     OW 3188   3.581   0.585   1.831
  982SOL    HW1 3189   3.555   0.674   1.795
  982SOL    HW2 3190   3.579   0.517   1.758
  983SOL     OW 3191   3.224   1.144   0.545
  983SOL    HW1 3192   3.307   1.115   0.497
  983SOL    HW2 3193   3.175   1.211   0.489
  984SOL     OW 3194   2.412   0.196   0.885
  984SOL    HW1 3195   2.407   0.191   0.985
  984SOL    HW2 3196   2.414   0.292   0.856
  985SOL     OW 3197   2.870   1.456   0.477
  985SOL    HW1 3198   2.824   1.528   0.425
  985SOL    HW2 3199   2.866   1.476   0.575
  986SOL     OW 3200   2.213   1.801   0.853
  986SOL    HW1 3201   2.263   1.715   0.859
  986SOL    HW2 3202   2.278   1.878   0.850
  987SOL     OW 3203   3.657   1.066   0.873
  987SOL    HW1 3204   3.595   1.051   0.797
  987SOL    HW2 3205   3.605   1.077   0.958
  988SOL     OW 3206   3.089   1.550   1.506
  988SOL    HW1 3207   3.095   1.473   1.570
  988SOL    HW2 3208   3.037   1.524   1.426
  989SOL     OW 3209   3.320   0.735   0.728
  989SOL    HW1 3210   3.315   0.670   0.803
  989SOL    HW2 3211   3.400   0.794   0.741
  990SOL     OW 3212   2.323   1.266   1.727
  990SOL    HW1 3213   2.273   1.267   1.641
  990SOL    HW2 3214   2.260   1.248   1.803
  991SOL     OW 3215   2.064   0.285   1.498
  991SOL    HW1 3216   1.984   0.345   1.485
  991SOL    HW2 3217   2.054   0.236   1.584
  992SOL     OW 3218   3.494   1.377   0.081
  992SOL    HW1 3219   3.462   1.471   0.071
  992SOL    HW2 3220   3.418   1.314   0.069
  993SOL     OW 3221   3.262   0.107   0.426
  993SOL    HW1 3222   3.238   0.070   0.336
  993SOL    HW2 3223   3.361   0.123   0.430
  994SOL     OW 3224   2.111   1.785   1.241
  994SOL    HW1 3225   2.168   1.720   1.291
  994SOL    HW2 3226   2.095   1.752   1.148
  995SOL     OW 3227   2.802   1.698   0.904
  995SOL    HW1 3228   2.882   1.641   0.925
  995SOL    HW2 3229   2.753   1.658   0.827
  996SOL     OW 3230   2.244   0.700   0.480
  996SOL    HW1 3231   2.289   0.610   0.477
  996SOL    HW2 3232   2.150   0.689   0.513
  997SOL     OW 3233   2.643   0.264   1.749
  997SOL    HW1 3234   2.710   0.203   1.792
  997SOL    HW2 3235   2.570   0.283   1.814
  998SOL     OW 3236   2.750   1.514   1.195
  998SOL    HW1 3237   2.727   1.489   1.101
  998SOL    HW2 3238   2.811   1.445   1.234
  999SOL     OW 3239   3.213   0.590   1.433
  999SOL    HW1 3240   3.241   0.547   1.518
  999SOL    HW2 3241   3.238   0.686   1.434
 1000SOL     OW 3242   2.665   1.402   0.924
 1000SOL    HW1 3243   2.755   1.416   0.882
 1000SOL    HW2 3244   2.594   1.404   0.853
 1001SOL     OW 3245   2.784   0.503   0.899
 1001SOL    HW1 3246   2.759   0.494   0.803
 1001SOL    HW2 3247   2.832   0.421   0.930
 1002SOL     OW 3248   2.401   0.064   0.512
 1002SOL    HW1 3249   2.320   0.065   0.570
 1002SOL    HW2 3250   2.404   0.147   0.457
 1003SOL     OW 3251   2.797   0.236   0.480
 1003SOL    HW1 3252   2.749   0.277   0.402
 1003SOL    HW2 3253   2.896   0.234   0.461
 1004SOL     OW 3254   2.938   0.683   1.464
 1004SOL    HW1 3255   2.858   0.622   1.467
 1004SOL    HW2 3256   3.019   0.630   1.440
 1005SOL     OW 3257   3.089   1.570   0.793
 1005SOL    HW1 3258   3.110   1.644   0.728
 1005SOL    HW2 3259   3.157   1.570   0.866
 1006SOL     OW 3260   2.321   1.152   0.741
 1006SOL    HW1 3261   2.250   1.125   0.806
 1006SOL    HW2 3262   2.295   1.124   0.648
 1007SOL     OW 3263   3.133   1.797   0.591
 1007SOL    HW1 3264   3.177   1.861   0.527
 1007SOL    HW2 3265   3.083   1.849   0.661
 1008SOL     OW 3266   1.940   0.556   1.386
 1008SOL    HW1 3267   2.032   0.555   1.345
 1008SOL    HW2 3268   1.934   0.630   1.453
 1009SOL     OW 3269   2.423   0.222   1.147
 1009SOL    HW1 3270   2.461   0.138   1.184
 1009SOL    HW2 3271   2.335   0.241   1.191
 1010SOL     OW 3272   2.728   0.454   0.642
 1010SOL    HW1 3273   2.696   0.526   0.580
 1010SOL    HW2 3274   2.752   0.373   0.589
 1011SOL     OW 3275   2.879   0.039   0.753
 1011SOL    HW1 3276   2.807   0.044   0.684
 1011SOL    HW2 3277   2.855  -0.030   0.822
 1012SOL     OW 3278   3.291   1.173   0.867
 1012SOL    HW1 3279   3.236   1.089   0.860
 1012SOL    HW2 3280   3.317   1.202   0.775
 1013SOL     OW 3281   3.328   0.590   0.992
 1013SOL    HW1 3282   3.298   0.495   0.999
 1013SOL    HW2 3283   3.401   0.606   1.058
 1014SOL     OW 3284   3.719   0.833   0.377
 1014SOL    HW1 3285   3.761   0.769   0.441
 1014SOL    HW2 3286   3.681   0.782   0.299
 1015SOL     OW 3287   3.526   1.280   0.657
 1015SOL    HW1 3288   3.625   1.288   0.671
 1015SOL    HW2 3289   3.481   1.364   0.688
 1016SOL     OW 3290   2.389   0.256   0.328
 1016SOL    HW1 3291   2.416   0.197   0.253
 1016SOL    HW2 3292   2.389   0.351   0.297
 1017SOL     OW 3293   3.616   1.223   1.588
 1017SOL    HW1 3294   3.707   1.184   1.575
 1017SOL    HW2 3295   3.624   1.319   1.612
 1018SOL     OW 3296   2.926   1.347   1.340
 1018SOL    HW1 3297   2.846   1.324   1.395
 1018SOL    HW2 3298   3.009   1.321   1.389
 1019SOL     OW 3299   3.454   1.629   1.625
 1019SOL    HW1 3300   3.481   1.663   1.535
 1019SOL    HW2 3301   3.533   1.591   1.671
 1020SOL     OW 3302   2.973   1.195   1.100
 1020SOL    HW1 3303   2.933   1.239   1.181
 1020SOL    HW2 3304   2.932   1.232   1.017
 1021SOL     OW 3305   3.500   1.099   1.079
 1021SOL    HW1 3306   3.505   1.180   1.138
 1021SOL    HW2 3307   3.414   1.101   1.028
 1022SOL     OW 3308   2.777   0.089   1.402
 1022SOL    HW1 3309   2.802   0.069   1.307
 1022SOL    HW2 3310   2.849   0.145   1.444
 1023SOL     OW 3311   2.842   1.116   1.719
 1023SOL    HW1 3312   2.743   1.122   1.729
 1023SOL    HW2 3313   2.865   1.036   1.663
 1024SOL     OW 3314   2.272   0.813   1.251
 1024SOL    HW1 3315   2.358   0.825   1.301
 1024SOL    HW2 3316   2.230   0.726   1.278
 1025SOL     OW 3317   3.136   0.386   1.262
 1025SOL    HW1 3318   3.157   0.460   1.326
 1025SOL    HW2 3319   3.047   0.403   1.219
 1026SOL     OW 3320   1.926   1.564   1.331
 1026SOL    HW1 3321   1.880   1.646   1.297
 1026SOL    HW2 3322   2.024   1.583   1.340
 1027SOL     OW 3323   2.229   1.100   0.501
 1027SOL    HW1 3324   2.222   1.183   0.445
 1027SOL    HW2 3325   2.233   1.020   0.441
 1028SOL     OW 3326   2.428   0.537   0.865
 1028SOL    HW1 3327   2.440   0.603   0.791
 1028SOL    HW2 3328   2.474   0.571   0.948
 1029SOL     OW 3329   3.134   1.445   1.142
 1029SOL    HW1 3330   3.181   1.458   1.229
 1029SOL    HW2 3331   3.068   1.371   1.151
 1030SOL     OW 3332   3.444   0.639   0.472
 1030SOL    HW1 3333   3.413   0.700   0.545
 1030SOL    HW2 3334   3.494   0.691   0.403
 1031SOL     OW 3335   2.216   1.510   1.329
 1031SOL    HW1 3336   2.195   1.466   1.242
 1031SOL    HW2 3337   2.313   1.536   1.332
 1032SOL     OW 3338   2.264   0.751   1.598
 1032SOL    HW1 3339   2.332   0.806   1.551
 1032SOL    HW2 3340   2.304   0.663   1.625
 1033SOL     OW 3341   3.449   0.779   1.670
 1033SOL    HW1 3342   3.357   0.817   1.665
 1033SOL    HW2 3343   3.509   0.826   1.605
 1034SOL     OW 3344   2.875   0.105   1.770
 1034SOL    HW1 3345   2.881   0.190   1.718
 1034SOL    HW2 3346   2.907   0.029   1.713
 1035SOL     OW 3347   2.366   0.050   1.740
 1035SOL    HW1 3348   2.324  -0.007   1.670
 1035SOL    HW2 3349   2.300   0.119   1.772
 1036SOL     OW 3350   2.435   0.870   1.029
 1036SOL    HW1 3351   2.479   0.959   1.020
 1036SOL    HW2 3352   2.372   0.870   1.106
 1037SOL     OW 3353   3.222   0.862   1.045
 1037SOL    HW1 3354   3.147   0.862   0.979
 1037SOL    HW2 3355   3.259   0.770   1.054
 1038SOL     OW 3356   2.169   0.213   1.231
 1038SOL    HW1 3357   2.146   0.250   1.321
 1038SOL    HW2 3358   2.139   0.118   1.225
 1039SOL     OW 3359   1.899   1.310   1.282
 1039SOL    HW1 3360   1.952   1.261   1.350
 1039SOL    HW2 3361   1.921   1.408   1.287
 1040SOL     OW 3362   2.594   0.634   1.064
 1040SOL    HW1 3363   2.653   0.608   0.988
 1040SOL    HW2 3364   2.566   0.730   1.053
 1041SOL     OW 3365   3.590   0.935   1.854
 1041SOL    HW1 3366   3.544   0.928   1.765
 1041SOL    HW2 3367   3.528   0.979   1.920
 1042SOL     OW 3368   2.169   0.063   0.618
 1042SOL    HW1 3369   2.158   0.157   0.651
 1042SOL    HW2 3370   2.164   0.000   0.695
 1043SOL     OW 3371   3.484   0.367   0.374
 1043SOL    HW1 3372   3.486   0.291   0.438
 1043SOL    HW2 3373   3.436   0.444   0.414
 1044SOL     OW 3374   2.885   0.766   0.966
 1044SOL    HW1 3375   2.900   0.787   1.062
 1044SOL    HW2 3376   2.855   0.671   0.957
 1045SOL     OW 3377   2.842   1.573   1.700
 1045SOL    HW1 3378   2.822   1.617   1.612
 1045SOL    HW2 3379   2.881   1.482   1.684
 1046SOL     OW 3380   3.721   1.518   1.605
 1046SOL    HW1 3381   3.735   1.545   1.510
 1046SOL    HW2 3382   3.804   1.540   1.658
 1047SOL     OW 3383   2.212   0.898   1.804
 1047SOL    HW1 3384   2.288   0.942   1.852
 1047SOL    HW2 3385   2.247   0.851   1.722
 1048SOL     OW 3386   2.930   1.333   0.849
 1048SOL    HW1 3387   2.937   1.249   0.794
 1048SOL    HW2 3388   2.992   1.402   0.813
 1049SOL     OW 3389   2.181   0.810   0.949
 1049SOL    HW1 3390   2.274   0.846   0.954
 1049SOL    HW2 3391   2.175   0.725   1.001
 1050SOL     OW 3392   2.201   0.509   1.006
 1050SOL    HW1 3393   2.149   0.426   0.989
 1050SOL    HW2 3394   2.278   0.514   0.942
 1051SOL     OW 3395   3.000   0.380   1.678
 1051SOL    HW1 3396   2.955   0.443   1.742
 1051SOL    HW2 3397   3.093   0.411   1.661
 1052SOL     OW 3398   3.022   0.207   1.477
 1052SOL    HW1 3399   3.022   0.271   1.554
 1052SOL    HW2 3400   3.050   0.255   1.394
 1053SOL     OW 3401   1.870   1.326   0.200
 1053SOL    HW1 3402   1.777   1.347   0.169
 1053SOL    HW2 3403   1.880   1.227   0.213
 1054SOL     OW 3404   1.950   1.801   0.927
 1054SOL    HW1 3405   1.908   1.715   0.900
 1054SOL    HW2 3406   2.044   1.804   0.893
 1055SOL     OW 3407   2.366   1.568   0.910
 1055SOL    HW1 3408   2.432   1.642   0.919
 1055SOL    HW2 3409   2.410   1.489   0.868
 1056SOL     OW 3410   2.864   0.796   1.238
 1056SOL    HW1 3411   2.905   0.764   1.324
 1056SOL    HW2 3412   2.768   0.769   1.235
 1057SOL     OW 3413   1.902   0.544   1.114
 1057SOL    HW1 3414   1.987   0.511   1.073
 1057SOL    HW2 3415   1.915   0.559   1.212
 1058SOL     OW 3416   2.051   0.520   1.722
 1058SOL    HW1 3417   2.110   0.480   1.652
 1058SOL    HW2 3418   1.993   0.591   1.681
 1059SOL     OW 3419   3.231   0.950   1.660
 1059SOL    HW1 3420   3.270   1.039   1.680
 1059SOL    HW2 3421   3.241   0.930   1.563
 1060SOL     OW 3422   2.677   0.572   0.325
 1060SOL    HW1 3423   2.684   0.483   0.279
 1060SOL    HW2 3424   2.583   0.606   0.317
 1061SOL     OW 3425   3.519   0.604   1.206
 1061SOL    HW1 3426   3.481   0.535   1.268
 1061SOL    HW2 3427   3.601   0.568   1.162
 1062SOL     OW 3428   2.114   1.564   1.744
 1062SOL    HW1 3429   2.084   1.621   1.820
 1062SOL    HW2 3430   2.107   1.467   1.770
 1063SOL     OW 3431   2.533   0.464   1.269
 1063SOL    HW1 3432   2.499   0.375   1.239
 1063SOL    HW2 3433   2.559   0.518   1.189
 1064SOL     OW 3434   2.792   1.678   1.465
 1064SOL    HW1 3435   2.768   1.660   1.370
 1064SOL    HW2 3436   2.822   1.772   1.475
 1065SOL     OW 3437   2.335   0.500   0.191
 1065SOL    HW1 3438   2.396   0.580   0.195
 1065SOL    HW2 3439   2.240   0.531   0.198
 1066SOL     OW 3440   2.021   1.137   1.466
 1066SOL    HW1 3441   2.043   1.076   1.542
 1066SOL    HW2 3442   2.031   1.088   1.380
 1067SOL     OW 3443   3.209   1.059   1.234
 1067SOL    HW1 3444   3.233   0.996   1.160
 1067SOL    HW2 3445   3.119   1.099   1.216
 1068SOL     OW 3446   3.164   0.855   0.309
 1068SOL    HW1 3447   3.078   0.824   0.351
 1068SOL    HW2 3448   3.160   0.841   0.210
 1069SOL     OW 3449   3.621   1.747   1.154
 1069SOL    HW1 3450   3.682   1.777   1.081
 1069SOL    HW2 3451   3.583   1.658   1.132
 1070SOL     OW 3452   3.114   1.731   1.128
 1070SOL    HW1 3453   3.198   1.736   1.074
 1070SOL    HW2 3454   3.091   1.635   1.146
 1071SOL     OW 3455   1.945   1.258   1.022
 1071SOL    HW1 3456   1.940   1.257   1.122
 1071SOL    HW2 3457   1.862   1.217   0.984
 1072SOL     OW 3458   2.550   1.662   1.716
 1072SOL    HW1 3459   2.494   1.743   1.725
 1072SOL    HW2 3460   2.602   1.666   1.630
 1073SOL     OW 3461   3.588   0.135   0.523
 1073SOL    HW1 3462   3.661   0.118   0.456
 1073SOL    HW2 3463   3.557   0.048   0.561
 1074SOL     OW 3464   3.250   1.573   0.477
 1074SOL    HW1 3465   3.317   1.585   0.403
 1074SOL    HW2 3466   3.210   1.662   0.500
 1075SOL     OW 3467   1.992   1.794   1.851
 1075SOL    HW1 3468   1.951   1.720   1.904
 1075SOL    HW2 3469   2.056   1.845   1.909
 1076SOL     OW 3470   3.142   0.927   0.672
 1076SOL    HW1 3471   3.202   0.846   0.674
 1076SOL    HW2 3472   3.182   0.996   0.612
 1077SOL     OW 3473   2.692   1.273   1.422
 1077SOL    HW1 3474   2.687   1.306   1.517
 1077SOL    HW2 3475   2.606   1.292   1.376
 1078SOL     OW 3476   3.512   1.720   1.394
 1078SOL    HW1 3477   3.565   1.730   1.310
 1078SOL    HW2 3478   3.485   1.810   1.428
 1079SOL     OW 3479   3.703   0.175   0.963
 1079SOL    HW1 3480   3.742   0.090   0.927
 1079SOL    HW2 3481   3.605   0.177   0.944
 1080SOL     OW 3482   2.125   0.326   0.720
 1080SOL    HW1 3483   2.046   0.377   0.686
 1080SOL    HW2 3484   2.116   0.311   0.818
 1081SOL     OW 3485   2.684   1.002   1.372
 1081SOL    HW1 3486   2.724   1.001   1.280
 1081SOL    HW2 3487   2.694   1.094   1.412
 1082SOL     OW 3488   3.366   1.607   0.044
 1082SOL    HW1 3489   3.274   1.644   0.051
 1082SOL    HW2 3490   3.404   1.627  -0.046
 1083SOL     OW 3491   2.234   1.288   1.490
 1083SOL    HW1 3492   2.221   1.381   1.456
 1083SOL    HW2 3493   2.150   1.236   1.477
 1084SOL     OW 3494   3.476   1.292   1.289
 1084SOL    HW1 3495   3.536   1.295   1.369
 1084SOL    HW2 3496   3.401   1.356   1.302
 1085SOL     OW 3497   2.901   1.098   0.696
 1085SOL    HW1 3498   2.831   1.051   0.750
 1085SOL    HW2 3499   2.960   1.030   0.653
 1086SOL     OW 3500   2.876   0.236   0.971
 1086SOL    HW1 3501   2.868   0.200   0.878
 1086SOL    HW2 3502   2.874   0.160   1.036
 1087SOL     OW 3503   2.452   1.487   0.491
 1087SOL    HW1 3504   2.494   1.429   0.421
 1087SOL    HW2 3505   2.408   1.566   0.447
 1088SOL     OW 3506   3.571   0.385   1.381
 1088SOL    HW1 3507   3.644   0.454   1.385
 1088SOL    HW2 3508   3.599   0.310   1.322
 1089SOL     OW 3509   2.117   1.348   0.290
 1089SOL    HW1 3510   2.021   1.349   0.263
 1089SOL    HW2 3511   2.129   1.401   0.374
 1090SOL     OW 3512   1.967   1.013   1.726
 1090SOL    HW1 3513   1.890   0.980   1.780
 1090SOL    HW2 3514   2.052   0.983   1.768
 1091SOL     OW 3515   2.534   0.203   1.489
 1091SOL    HW1 3516   2.624   0.187   1.449
 1091SOL    HW2 3517   2.542   0.208   1.588
 1092SOL     OW 3518   1.937   0.345   0.033
 1092SOL    HW1 3519   1.845   0.317   0.004
 1092SOL    HW2 3520   1.968   0.422  -0.023
 1093SOL     OW 3521   3.302   0.856   1.398
 1093SOL    HW1 3522   3.245   0.908   1.335
 1093SOL    HW2 3523   3.398   0.868   1.374
 1094SOL     OW 3524   1.934   0.166   0.318
 1094SOL    HW1 3525   1.917   0.249   0.264
 1094SOL    HW2 3526   2.024   0.129   0.296
 1095SOL     OW 3527   2.475   0.842   1.431
 1095SOL    HW1 3528   2.531   0.923   1.414
 1095SOL    HW2 3529   2.534   0.762   1.434
 1096SOL     OW 3530   3.355   1.767   0.959
 1096SOL    HW1 3531   3.388   1.831   0.890
 1096SOL    HW2 3532   3.421   1.761   1.034
 1097SOL     OW 3533   2.578   0.565   1.708
 1097SOL    HW1 3534   2.597   0.630   1.782
 1097SOL    HW2 3535   2.638   0.485   1.717
 1098SOL     OW 3536   3.312   1.220   1.633
 1098SOL    HW1 3537   3.303   1.210   1.732
 1098SOL    HW2 3538   3.408   1.213   1.607
 1099SOL     OW 3539   2.252   1.741   1.560
 1099SOL    HW1 3540   2.161   1.782   1.558
 1099SOL    HW2 3541   2.245   1.647   1.592
 1100SOL     OW 3542   3.536   0.883   1.254
 1100SOL    HW1 3543   3.509   0.794   1.217
 1100SOL    HW2 3544   3.537   0.951   1.181
 1101SOL     OW 3545   3.087   0.325   0.449
 1101SOL    HW1 3546   3.152   0.251   0.438
 1101SOL    HW2 3547   3.107   0.375   0.533
 1102SOL     OW 3548   2.456   0.745   0.652
 1102SOL    HW1 3549   2.506   0.830   0.633
 1102SOL    HW2 3550   2.368   0.747   0.604
 1103SOL     OW 3551   3.639   0.342   1.642
 1103SOL    HW1 3552   3.622   0.373   1.548
 1103SOL    HW2 3553   3.555   0.305   1.680
 1104SOL     OW 3554   3.592   0.934   1.517
 1104SOL    HW1 3555   3.630   1.025   1.532
 1104SOL    HW2 3556   3.584   0.917   1.418
 1105SOL     OW 3557   2.523   1.790   0.953
 1105SOL    HW1 3558   2.477   1.878   0.940
 1105SOL    HW2 3559   2.622   1.802   0.946
 1106SOL     OW 3560   2.721   0.956   0.861
 1106SOL    HW1 3561   2.775   0.887   0.909
 1106SOL    HW2 3562   2.689   1.025   0.927
 1107SOL     OW 3563   3.723   1.569   0.851
 1107SOL    HW1 3564   3.652   1.557   0.781
 1107SOL    HW2 3565   3.724   1.490   0.911
 1108SOL     OW 3566   2.083   1.314   1.844
 1108SOL    HW1 3567   2.018   1.241   1.823
 1108SOL    HW2 3568   2.087   1.328   1.942
 1109SOL     OW 3569   1.941   1.240   0.653
 1109SOL    HW1 3570   1.940   1.193   0.741
 1109SOL    HW2 3571   2.023   1.212   0.602
 1110SOL     OW 3572   2.534   1.391   1.624
 1110SOL    HW1 3573   2.456   1.341   1.662
 1110SOL    HW2 3574   2.531   1.486   1.655
 1111SOL     OW 3575   3.686   0.192   1.227
 1111SOL    HW1 3576   3.682   0.102   1.271
 1111SOL    HW2 3577   3.689   0.181   1.128
 1112SOL     OW 3578   2.290   0.424   0.520
 1112SOL    HW1 3579   2.320   0.352   0.458
 1112SOL    HW2 3580   2.251   0.384   0.603
 1113SOL     OW 3581   3.567   1.487   1.104
 1113SOL    HW1 3582   3.474   1.462   1.077
 1113SOL    HW2 3583   3.593   1.437   1.186
 1114SOL     OW 3584   2.179   0.547   1.280
 1114SOL    HW1 3585   2.217   0.488   1.352
 1114SOL    HW2 3586   2.219   0.521   1.192
 1115SOL     OW 3587   2.674   1.586   0.687
 1115SOL    HW1 3588   2.706   1.596   0.593
 1115SOL    HW2 3589   2.595   1.524   0.689
 1116SOL     OW 3590   3.286   0.214   1.112
 1116SOL    HW1 3591   3.338   0.149   1.167
 1116SOL    HW2 3592   3.237   0.277   1.173
 1117SOL     OW 3593   2.863   0.034   1.154
 1117SOL    HW1 3594   2.800  -0.038   1.123
 1117SOL    HW2 3595   2.956  -0.002   1.154
 1118SOL     OW 3596   2.632   1.330   0.301
 1118SOL    HW1 3597   2.586   1.243   0.318
 1118SOL    HW2 3598   2.723   1.327   0.342
 1119SOL     OW 3599   2.480   1.567   1.284
 1119SOL    HW1 3600   2.475   1.649   1.341
 1119SOL    HW2 3601   2.569   1.564   1.239
 1120SOL     OW 3602   3.162   0.453   0.691
 1120SOL    HW1 3603   3.103   0.533   0.695
 1120SOL    HW2 3604   3.177   0.418   0.784
 1121SOL     OW 3605   3.455   0.221   0.882
 1121SOL    HW1 3606   3.371   0.220   0.936
 1121SOL    HW2 3607   3.457   0.304   0.826
 1122SOL     OW 3608   1.901   1.077   0.300
 1122SOL    HW1 3609   2.000   1.066   0.291
 1122SOL    HW2 3610   1.861   0.991   0.332
 1123SOL     OW 3611   2.737   1.646   0.337
 1123SOL    HW1 3612   2.660   1.611   0.283
 1123SOL    HW2 3613   2.705   1.717   0.399
 1124SOL     OW 3614   2.092   0.628   1.975
 1124SOL    HW1 3615   1.999   0.626   2.012
 1124SOL    HW2 3616   2.093   0.589   1.883
 1125SOL     OW 3617   2.087   0.275   2.858
 1125SOL    HW1 3618   2.122   0.258   2.950
 1125SOL    HW2 3619   1.999   0.230   2.846
 1126SOL     OW 3620   1.881   0.368   2.509
 1126SOL    HW1 3621   1.799   0.411   2.548
 1126SOL    HW2 3622   1.853   0.295   2.446
 1127SOL     OW 3623   2.431   1.275   3.027
 1127SOL    HW1 3624   2.338   1.268   2.990
 1127SOL    HW2 3625   2.442   1.364   3.071
 1128SOL     OW 3626   3.417   1.511   2.565
 1128SOL    HW1 3627   3.360   1.495   2.646
 1128SOL    HW2 3628   3.358   1.521   2.485
 1129SOL     OW 3629   2.997   0.703   2.579
 1129SOL    HW1 3630   3.054   0.781   2.554
 1129SOL    HW2 3631   2.937   0.729   2.655
 1130SOL     OW 3632   3.617   0.607   2.093
 1130SOL    HW1 3633   3.605   0.594   1.994
 1130SOL    HW2 3634   3.587   0.526   2.142
 1131SOL     OW 3635   2.630   1.144   2.885
 1131SOL    HW1 3636   2.552   1.161   2.945
 1131SOL    HW2 3637   2.664   1.231   2.849
 1132SOL     OW 3638   2.547   1.012   2.527
 1132SOL    HW1 3639   2.616   0.996   2.597
 1132SOL    HW2 3640   2.474   1.069   2.565
 1133SOL     OW 3641   2.197   1.435   2.923
 1133SOL    HW1 3642   2.119   1.404   2.870
 1133SOL    HW2 3643   2.255   1.493   2.866
 1134SOL     OW 3644   3.465   0.447   2.599
 1134SOL    HW1 3645   3.391   0.493   2.549
 1134SOL    HW2 3646   3.516   0.515   2.652
 1135SOL     OW 3647   2.093   1.713   2.345
 1135SOL    HW1 3648   2.127   1.790   2.399
 1135SOL    HW2 3649   2.137   1.713   2.255
 1136SOL     OW 3650   2.092   1.434   2.400
 1136SOL    HW1 3651   2.066   1.530   2.400
 1136SOL    HW2 3652   2.021   1.380   2.445
 1137SOL     OW 3653   2.102   1.091   2.748
 1137SOL    HW1 3654   2.116   1.007   2.800
 1137SOL    HW2 3655   2.047   1.155   2.803
 1138SOL     OW 3656   2.468   0.964   1.985
 1138SOL    HW1 3657   2.475   1.048   1.931
 1138SOL    HW2 3658   2.514   0.977   2.073
 1139SOL     OW 3659   1.984   0.643   2.425
 1139SOL    HW1 3660   1.939   0.555   2.442
 1139SOL    HW2 3661   1.983   0.697   2.509
 1140SOL     OW 3662   3.704   1.767   2.221
 1140SOL    HW1 3663   3.758   1.738   2.301
 1140SOL    HW2 3664   3.734   1.857   2.192
 1141SOL     OW 3665   1.889   1.596   1.979
 1141SOL    HW1 3666   1.870   1.500   2.000
 1141SOL    HW2 3667   1.856   1.654   2.054
 1142SOL     OW 3668   3.551   0.922   2.474
 1142SOL    HW1 3669   3.646   0.893   2.482
 1142SOL    HW2 3670   3.543   0.987   2.399
 1143SOL     OW 3671   3.503   1.108   2.294
 1143SOL    HW1 3672   3.589   1.110   2.242
 1143SOL    HW2 3673   3.517   1.155   2.382
 1144SOL     OW 3674   2.475   1.365   2.588
 1144SOL    HW1 3675   2.426   1.278   2.597
 1144SOL    HW2 3676   2.452   1.408   2.501
 1145SOL     OW 3677   3.155   1.228   3.285
 1145SOL    HW1 3678   3.192   1.155   3.227
 1145SOL    HW2 3679   3.207   1.233   3.370
 1146SOL     OW 3680   2.671   0.004   2.364
 1146SOL    HW1 3681   2.711   0.095   2.355
 1146SOL    HW2 3682   2.571   0.012   2.370
 1147SOL     OW 3683   2.059   0.976   3.126
 1147SOL    HW1 3684   2.148   0.931   3.112
 1147SOL    HW2 3685   1.986   0.911   3.107
 1148SOL     OW 3686   3.387   0.999   2.052
 1148SOL    HW1 3687   3.324   0.923   2.065
 1148SOL    HW2 3688   3.435   1.017   2.138
 1149SOL     OW 3689   3.328   1.417   2.815
 1149SOL    HW1 3690   3.269   1.423   2.895
 1149SOL    HW2 3691   3.313   1.329   2.769
 1150SOL     OW 3692   3.529   1.714   2.434
 1150SOL    HW1 3693   3.488   1.691   2.346
 1150SOL    HW2 3694   3.511   1.640   2.499
 1151SOL     OW 3695   2.460   0.729   2.132
 1151SOL    HW1 3696   2.484   0.798   2.064
 1151SOL    HW2 3697   2.382   0.762   2.186
 1152SOL     OW 3698   3.143   0.345   2.806
 1152SOL    HW1 3699   3.057   0.295   2.793
 1152SOL    HW2 3700   3.205   0.291   2.862
 1153SOL     OW 3701   3.438   1.662   2.169
 1153SOL    HW1 3702   3.527   1.708   2.172
 1153SOL    HW2 3703   3.417   1.638   2.074
 1154SOL     OW 3704   2.853   0.410   3.104
 1154SOL    HW1 3705   2.776   0.444   3.158
 1154SOL    HW2 3706   2.819   0.359   3.025
 1155SOL     OW 3707   2.903   0.701   2.291
 1155SOL    HW1 3708   2.929   0.697   2.387
 1155SOL    HW2 3709   2.818   0.650   2.277
 1156SOL     OW 3710   1.938   0.811   2.651
 1156SOL    HW1 3711   2.037   0.799   2.660
 1156SOL    HW2 3712   1.914   0.906   2.672
 1157SOL     OW 3713   2.727   0.348   2.057
 1157SOL    HW1 3714   2.786   0.411   2.008
 1157SOL    HW2 3715   2.746   0.254   2.028
 1158SOL     OW 3716   3.224   1.144   2.407
 1158SOL    HW1 3717   3.307   1.115   2.359
 1158SOL    HW2 3718   3.175   1.211   2.351
 1159SOL     OW 3719   2.412   0.196   2.747
 1159SOL    HW1 3720   2.407   0.191   2.847
 1159SOL    HW2 3721   2.414   0.292   2.718
 1160SOL     OW 3722   2.870   1.456   2.339
 1160SOL    HW1 3723   2.824   1.528   2.287
 1160SOL    HW2 3724   2.866   1.476   2.437
 1161SOL     OW 3725   2.213   1.801   2.715
 1161SOL    HW1 3726   2.263   1.715   2.721
 1161SOL    HW2 3727   2.278   1.878   2.712
 1162SOL     OW 3728   3.657   1.066   2.735
 1162SOL    HW1 3729   3.595   1.051   2.659
 1162SOL    HW2 3730   3.605   1.077   2.820
 1163SOL     OW 3731   2.183   0.943   2.104
 1163SOL    HW1 3732   2.265   0.982   2.062
 1163SOL    HW2 3733   2.156   0.861   2.055
 1164SOL     OW 3734   3.320   0.735   2.590
 1164SOL    HW1 3735   3.315   0.670   2.665
 1164SOL    HW2 3736   3.400   0.794   2.603
 1165SOL     OW 3737   2.973   1.776   2.099
 1165SOL    HW1 3738   2.913   1.714   2.149
 1165SOL    HW2 3739   3.004   1.732   2.014
 1166SOL     OW 3740   2.064   0.285   3.360
 1166SOL    HW1 3741   1.984   0.345   3.347
 1166SOL    HW2 3742   2.054   0.236   3.446
 1167SOL     OW 3743   3.494   1.377   1.943
 1167SOL    HW1 3744   3.462   1.471   1.933
 1167SOL    HW2 3745   3.418   1.314   1.931
 1168SOL     OW 3746   2.326   1.743   2.185
 1168SOL    HW1 3747   2.359   1.782   2.271
 1168SOL    HW2 3748   2.402   1.736   2.120
 1169SOL     OW 3749   3.262   0.107   2.288
 1169SOL    HW1 3750   3.238   0.070   2.198
 1169SOL    HW2 3751   3.361   0.123   2.292
 1170SOL     OW 3752   2.802   1.698   2.766
 1170SOL    HW1 3753   2.882   1.641   2.787
 1170SOL    HW2 3754   2.753   1.658   2.689
 1171SOL     OW 3755   2.244   0.700   2.342
 1171SOL    HW1 3756   2.289   0.610   2.339
 1171SOL    HW2 3757   2.150   0.689   2.375
 1172SOL     OW 3758   2.476   0.122   1.979
 1172SOL    HW1 3759   2.574   0.100   1.986
 1172SOL    HW2 3760   2.445   0.105   1.886
 1173SOL     OW 3761   2.665   1.402   2.786
 1173SOL    HW1 3762   2.755   1.416   2.744
 1173SOL    HW2 3763   2.594   1.404   2.715
 1174SOL     OW 3764   2.784   0.503   2.761
 1174SOL    HW1 3765   2.759   0.494   2.665
 1174SOL    HW2 3766   2.832   0.421   2.792
 1175SOL     OW 3767   2.401   0.064   2.374
 1175SOL    HW1 3768   2.320   0.065   2.432
 1175SOL    HW2 3769   2.404   0.147   2.319
 1176SOL     OW 3770   3.296   1.188   1.903
 1176SOL    HW1 3771   3.328   1.112   1.960
 1176SOL    HW2 3772   3.204   1.215   1.933
 1177SOL     OW 3773   2.159   0.035   2.033
 1177SOL    HW1 3774   2.208   0.119   2.012
 1177SOL    HW2 3775   2.221  -0.030   2.078
 1178SOL     OW 3776   2.797   0.236   2.342
 1178SOL    HW1 3777   2.749   0.277   2.264
 1178SOL    HW2 3778   2.896   0.234   2.323
 1179SOL     OW 3779   3.089   1.570   2.655
 1179SOL    HW1 3780   3.110   1.644   2.590
 1179SOL    HW2 3781   3.157   1.570   2.728
 1180SOL     OW 3782   2.321   1.152   2.603
 1180SOL    HW1 3783   2.250   1.125   2.668
 1180SOL    HW2 3784   2.295   1.124   2.510
 1181SOL     OW 3785   3.133   1.797   2.453
 1181SOL    HW1 3786   3.177   1.861   2.389
 1181SOL    HW2 3787   3.083   1.849   2.523
 1182SOL     OW 3788   2.894   0.549   1.878
 1182SOL    HW1 3789   2.853   0.631   1.839
 1182SOL    HW2 3790   2.958   0.575   1.951
 1183SOL     OW 3791   1.940   0.556   3.248
 1183SOL    HW1 3792   2.032   0.555   3.207
 1183SOL    HW2 3793   1.934   0.630   3.315
 1184SOL     OW 3794   2.728   0.454   2.504
 1184SOL    HW1 3795   2.696   0.526   2.442
 1184SOL    HW2 3796   2.752   0.373   2.451
 1185SOL     OW 3797   2.879   0.039   2.615
 1185SOL    HW1 3798   2.807   0.044   2.546
 1185SOL    HW2 3799   2.855  -0.030   2.684
 1186SOL     OW 3800   3.291   1.173   2.729
 1186SOL    HW1 3801   3.236   1.089   2.722
 1186SOL    HW2 3802   3.317   1.202   2.637
 1187SOL     OW 3803   3.328   0.590   2.854
 1187SOL    HW1 3804   3.298   0.495   2.861
 1187SOL    HW2 3805   3.401   0.606   2.920
 1188SOL     OW 3806   3.719   0.833   2.239
 1188SOL    HW1 3807   3.761   0.769   2.303
 1188SOL    HW2 3808   3.681   0.782   2.161
 1189SOL     OW 3809   2.350   1.385   2.036
 1189SOL    HW1 3810   2.263   1.370   2.083
 1189SOL    HW2 3811   2.333   1.411   1.941
 1190SOL     OW 3812   3.526   1.280   2.519
 1190SOL    HW1 3813   3.625   1.288   2.533
 1190SOL    HW2 3814   3.481   1.364   2.550
 1191SOL     OW 3815   3.252   0.575   1.940
 1191SOL    HW1 3816   3.198   0.554   2.021
 1191SOL    HW2 3817   3.343   0.534   1.949
 1192SOL     OW 3818   2.389   0.256   2.190
 1192SOL    HW1 3819   2.416   0.197   2.115
 1192SOL    HW2 3820   2.389   0.351   2.159
 1193SOL     OW 3821   2.973   1.195   2.962
 1193SOL    HW1 3822   2.933   1.239   3.043
 1193SOL    HW2 3823   2.932   1.232   2.879
 1194SOL     OW 3824   3.500   1.099   2.941
 1194SOL    HW1 3825   3.505   1.180   3.000
 1194SOL    HW2 3826   3.414   1.101   2.890
 1195SOL     OW 3827   2.567   1.050   2.230
 1195SOL    HW1 3828   2.553   1.057   2.329
 1195SOL    HW2 3829   2.651   0.999   2.212
 1196SOL     OW 3830   2.272   0.813   3.113
 1196SOL    HW1 3831   2.358   0.825   3.163
 1196SOL    HW2 3832   2.230   0.726   3.140
 1197SOL     OW 3833   1.926   1.564   3.193
 1197SOL    HW1 3834   1.880   1.646   3.159
 1197SOL    HW2 3835   2.024   1.583   3.202
 1198SOL     OW 3836   2.229   1.100   2.363
 1198SOL    HW1 3837   2.222   1.183   2.307
 1198SOL    HW2 3838   2.233   1.020   2.303
 1199SOL     OW 3839   2.428   0.537   2.727
 1199SOL    HW1 3840   2.440   0.603   2.653
 1199SOL    HW2 3841   2.474   0.571   2.810
 1200SOL     OW 3842   3.114   1.348   2.250
 1200SOL    HW1 3843   3.164   1.425   2.290
 1200SOL    HW2 3844   3.019   1.350   2.282
 1201SOL     OW 3845   3.134   1.445   3.004
 1201SOL    HW1 3846   3.181   1.458   3.091
 1201SOL    HW2 3847   3.068   1.371   3.013
 1202SOL     OW 3848   3.444   0.639   2.334
 1202SOL    HW1 3849   3.413   0.700   2.407
 1202SOL    HW2 3850   3.494   0.691   2.265
 1203SOL     OW 3851   2.216   1.510   3.191
 1203SOL    HW1 3852   2.195   1.466   3.104
 1203SOL    HW2 3853   2.313   1.536   3.194
 1204SOL     OW 3854   2.435   0.870   2.891
 1204SOL    HW1 3855   2.479   0.959   2.882
 1204SOL    HW2 3856   2.372   0.870   2.968
 1205SOL     OW 3857   3.222   0.862   2.907
 1205SOL    HW1 3858   3.147   0.862   2.841
 1205SOL    HW2 3859   3.259   0.770   2.916
 1206SOL     OW 3860   3.071   0.525   2.137
 1206SOL    HW1 3861   3.084   0.441   2.191
 1206SOL    HW2 3862   3.042   0.599   2.197
 1207SOL     OW 3863   2.169   0.213   3.093
 1207SOL    HW1 3864   2.146   0.250   3.183
 1207SOL    HW2 3865   2.139   0.118   3.087
 1208SOL     OW 3866   1.899   1.310   3.144
 1208SOL    HW1 3867   1.952   1.261   3.212
 1208SOL    HW2 3868   1.921   1.408   3.149
 1209SOL     OW 3869   2.594   0.634   2.926
 1209SOL    HW1 3870   2.653   0.608   2.850
 1209SOL    HW2 3871   2.566   0.730   2.915
 1210SOL     OW 3872   2.169   0.063   2.480
 1210SOL    HW1 3873   2.158   0.157   2.513
 1210SOL    HW2 3874   2.164   0.000   2.557
 1211SOL     OW 3875   3.484   0.367   2.236
 1211SOL    HW1 3876   3.486   0.291   2.300
 1211SOL    HW2 3877   3.436   0.444   2.276
 1212SOL     OW 3878   2.885   0.766   2.828
 1212SOL    HW1 3879   2.900   0.787   2.924
 1212SOL    HW2 3880   2.855   0.671   2.819
 1213SOL     OW 3881   3.402   0.274   1.987
 1213SOL    HW1 3882   3.341   0.199   2.010
 1213SOL    HW2 3883   3.424   0.326   2.070
 1214SOL     OW 3884   3.165   0.838   1.904
 1214SOL    HW1 3885   3.199   0.745   1.919
 1214SOL    HW2 3886   3.183   0.865   1.809
 1215SOL     OW 3887   2.930   1.333   2.711
 1215SOL    HW1 3888   2.937   1.249   2.656
 1215SOL    HW2 3889   2.992   1.402   2.675
 1216SOL     OW 3890   2.181   0.810   2.811
 1216SOL    HW1 3891   2.274   0.846   2.816
 1216SOL    HW2 3892   2.175   0.725   2.863
 1217SOL     OW 3893   2.201   0.509   2.868
 1217SOL    HW1 3894   2.149   0.426   2.851
 1217SOL    HW2 3895   2.278   0.514   2.804
 1218SOL     OW 3896   1.870   1.326   2.062
 1218SOL    HW1 3897   1.777   1.347   2.031
 1218SOL    HW2 3898   1.880   1.227   2.075
 1219SOL     OW 3899   1.950   1.801   2.789
 1219SOL    HW1 3900   1.908   1.715   2.762
 1219SOL    HW2 3901   2.044   1.804   2.755
 1220SOL     OW 3902   2.366   1.568   2.772
 1220SOL    HW1 3903   2.432   1.642   2.781
 1220SOL    HW2 3904   2.410   1.489   2.730
 1221SOL     OW 3905   1.902   0.544   2.976
 1221SOL    HW1 3906   1.987   0.511   2.935
 1221SOL    HW2 3907   1.915   0.559   3.074
 1222SOL     OW 3908   2.677   0.572   2.187
 1222SOL    HW1 3909   2.684   0.483   2.141
 1222SOL    HW2 3910   2.583   0.606   2.179
 1223SOL     OW 3911   2.533   0.464   3.131
 1223SOL    HW1 3912   2.499   0.375   3.101
 1223SOL    HW2 3913   2.559   0.518   3.051
 1224SOL     OW 3914   2.335   0.500   2.053
 1224SOL    HW1 3915   2.396   0.580   2.057
 1224SOL    HW2 3916   2.240   0.531   2.060
 1225SOL     OW 3917   3.164   0.855   2.171
 1225SOL    HW1 3918   3.078   0.824   2.213
 1225SOL    HW2 3919   3.160   0.841   2.072
 1226SOL     OW 3920   3.621   1.747   3.016
 1226SOL    HW1 3921   3.682   1.777   2.943
 1226SOL    HW2 3922   3.583   1.658   2.994
 1227SOL     OW 3923   3.114   1.731   2.990
 1227SOL    HW1 3924   3.198   1.736   2.936
 1227SOL    HW2 3925   3.091   1.635   3.008
 1228SOL     OW 3926   1.945   1.258   2.884
 1228SOL    HW1 3927   1.940   1.257   2.984
 1228SOL    HW2 3928   1.862   1.217   2.846
 1229SOL     OW 3929   3.588   0.135   2.385
 1229SOL    HW1 3930   3.661   0.118   2.318
 1229SOL    HW2 3931   3.557   0.048   2.423
 1230SOL     OW 3932   3.250   1.573   2.339
 1230SOL    HW1 3933   3.317   1.585   2.265
 1230SOL    HW2 3934   3.210   1.662   2.362
 1231SOL     OW 3935   3.142   0.927   2.534
 1231SOL    HW1 3936   3.202   0.846   2.536
 1231SOL    HW2 3937   3.182   0.996   2.474
 1232SOL     OW 3938   2.534   1.616   2.016
 1232SOL    HW1 3939   2.543   1.626   1.917
 1232SOL    HW2 3940   2.494   1.527   2.037
 1233SOL     OW 3941   3.703   0.175   2.825
 1233SOL    HW1 3942   3.742   0.090   2.789
 1233SOL    HW2 3943   3.605   0.177   2.806
 1234SOL     OW 3944   2.125   0.326   2.582
 1234SOL    HW1 3945   2.046   0.377   2.548
 1234SOL    HW2 3946   2.116   0.311   2.680
 1235SOL     OW 3947   3.056   1.612   1.893
 1235SOL    HW1 3948   3.062   1.519   1.930
 1235SOL    HW2 3949   2.997   1.612   1.813
 1236SOL     OW 3950   2.778   0.910   2.153
 1236SOL    HW1 3951   2.841   0.948   2.085
 1236SOL    HW2 3952   2.818   0.827   2.192
 1237SOL     OW 3953   3.366   1.607   1.906
 1237SOL    HW1 3954   3.274   1.644   1.913
 1237SOL    HW2 3955   3.404   1.627   1.816
 1238SOL     OW 3956   2.901   1.098   2.558
 1238SOL    HW1 3957   2.831   1.051   2.612
 1238SOL    HW2 3958   2.960   1.030   2.515
 1239SOL     OW 3959   2.876   0.236   2.833
 1239SOL    HW1 3960   2.868   0.200   2.740
 1239SOL    HW2 3961   2.874   0.160   2.898
 1240SOL     OW 3962   2.452   1.487   2.353
 1240SOL    HW1 3963   2.494   1.429   2.283
 1240SOL    HW2 3964   2.408   1.566   2.309
 1241SOL     OW 3965   2.117   1.348   2.152
 1241SOL    HW1 3966   2.021   1.349   2.125
 1241SOL    HW2 3967   2.129   1.401   2.236
 1242SOL     OW 3968   1.937   0.345   1.895
 1242SOL    HW1 3969   1.845   0.317   1.866
 1242SOL    HW2 3970   1.968   0.422   1.839
 1243SOL     OW 3971   1.934   0.166   2.180
 1243SOL    HW1 3972   1.917   0.249   2.126
 1243SOL    HW2 3973   2.024   0.129   2.158
 1244SOL     OW 3974   3.045   1.335   1.981
 1244SOL    HW1 3975   2.946   1.324   1.983
 1244SOL    HW2 3976   3.079   1.350   2.074
 1245SOL     OW 3977   3.355   1.767   2.821
 1245SOL    HW1 3978   3.388   1.831   2.752
 1245SOL    HW2 3979   3.421   1.761   2.896
 1246SOL     OW 3980   3.087   0.325   2.311
 1246SOL    HW1 3981   3.152   0.251   2.300
 1246SOL    HW2 3982   3.107   0.375   2.395
 1247SOL     OW 3983   2.456   0.745   2.514
 1247SOL    HW1 3984   2.506   0.830   2.495
 1247SOL    HW2 3985   2.368   0.747   2.466
 1248SOL     OW 3986   2.721   1.374   1.878
 1248SOL    HW1 3987   2.675   1.389   1.966
 1248SOL    HW2 3988   2.765   1.459   1.848
 1249SOL     OW 3989   2.523   1.790   2.815
 1249SOL    HW1 3990   2.477   1.878   2.802
 1249SOL    HW2 3991   2.622   1.802   2.808
 1250SOL     OW 3992   2.721   0.956   2.723
 1250SOL    HW1 3993   2.775   0.887   2.771
 1250SOL    HW2 3994   2.689   1.025   2.789
 1251SOL     OW 3995   2.945   0.984   1.949
 1251SOL    HW1 3996   2.922   1.037   1.867
 1251SOL    HW2 3997   3.026   0.928   1.930
 1252SOL     OW 3998   3.723   1.569   2.713
 1252SOL    HW1 3999   3.652   1.557   2.643
 1252SOL    HW2 4000   3.724   1.490   2.773
 1253SOL     OW 4001   1.941   1.240   2.515
 1253SOL    HW1 4002   1.940   1.193   2.603
 1253SOL    HW2 4003   2.023   1.212   2.464
 1254SOL     OW 4004   2.290   0.424   2.382
 1254SOL    HW1 4005   2.320   0.352   2.320
 1254SOL    HW2 4006   2.251   0.384   2.465
 1255SOL     OW 4007   3.567   1.487   2.966
 1255SOL    HW1 4008   3.474   1.462   2.939
 1255SOL    HW2 4009   3.593   1.437   3.048
 1256SOL     OW 4010   2.179   0.547   3.142
 1256SOL    HW1 4011   2.217   0.488   3.214
 1256SOL    HW2 4012   2.219   0.521   3.054
 1257SOL     OW 4013   2.674   1.586   2.549
 1257SOL    HW1 4014   2.706   1.596   2.455
 1257SOL    HW2 4015   2.595   1.524   2.551
 1258SOL     OW 4016   2.863   0.034   3.016
 1258SOL    HW1 4017   2.800  -0.038   2.985
 1258SOL    HW2 4018   2.956  -0.002   3.016
 1259SOL     OW 4019   2.632   1.330   2.163
 1259SOL    HW1 4020   2.586   1.243   2.180
 1259SOL    HW2 4021   2.723   1.327   2.204
 1260SOL     OW 4022   3.214   0.052   2.030
 1260SOL    HW1 4023   3.249   0.011   1.946
 1260SOL    HW2 4024   3.124   0.014   2.050
 1261SOL     OW 4025   3.162   0.453   2.553
 1261SOL    HW1 4026   3.103   0.533   2.557
 1261SOL    HW2 4027   3.177   0.418   2.646
 1262SOL     OW 4028   3.455   0.221   2.744
 1262SOL    HW1 4029   3.371   0.220   2.798
 1262SOL    HW2 4030   3.457   0.304   2.688
 1263SOL     OW 4031   1.901   1.077   2.162
 1263SOL    HW1 4032   2.000   1.066   2.153
 1263SOL    HW2 4033   1.861   0.991   2.194
 1264SOL     OW 4034   2.737   1.646   2.199
 1264SOL    HW1 4035   2.660   1.611   2.145
 1264SOL    HW2 4036   2.705   1.717   2.261
 1265SOL     OW 4037   2.092   2.490   0.113
 1265SOL    HW1 4038   1.999   2.488   0.150
 1265SOL    HW2 4039   2.093   2.451   0.021
 1266SOL     OW 4040   2.087   2.137   0.996
 1266SOL    HW1 4041   2.122   2.120   1.088
 1266SOL    HW2 4042   1.999   2.092   0.984
 1267SOL     OW 4043   1.881   2.230   0.647
 1267SOL    HW1 4044   1.799   2.273   0.686
 1267SOL    HW2 4045   1.853   2.157   0.584
 1268SOL     OW 4046   2.431   3.137   1.165
 1268SOL    HW1 4047   2.338   3.130   1.128
 1268SOL    HW2 4048   2.442   3.226   1.209
 1269SOL     OW 4049   3.417   3.373   0.703
 1269SOL    HW1 4050   3.360   3.357   0.784
 1269SOL    HW2 4051   3.358   3.383   0.623
 1270SOL     OW 4052   2.997   2.565   0.717
 1270SOL    HW1 4053   3.054   2.643   0.692
 1270SOL    HW2 4054   2.937   2.591   0.793
 1271SOL     OW 4055   3.617   2.469   0.231
 1271SOL    HW1 4056   3.605   2.456   0.132
 1271SOL    HW2 4057   3.587   2.388   0.280
 1272SOL     OW 4058   2.712   2.660   1.823
 1272SOL    HW1 4059   2.708   2.736   1.888
 1272SOL    HW2 4060   2.734   2.696   1.732
 1273SOL     OW 4061   2.547   2.874   0.665
 1273SOL    HW1 4062   2.616   2.858   0.735
 1273SOL    HW2 4063   2.474   2.931   0.703
 1274SOL     OW 4064   2.197   3.297   1.061
 1274SOL    HW1 4065   2.119   3.266   1.008
 1274SOL    HW2 4066   2.255   3.355   1.004
 1275SOL     OW 4067   2.300   2.254   1.499
 1275SOL    HW1 4068   2.382   2.198   1.508
 1275SOL    HW2 4069   2.219   2.196   1.503
 1276SOL     OW 4070   3.465   2.309   0.737
 1276SOL    HW1 4071   3.391   2.355   0.687
 1276SOL    HW2 4072   3.516   2.377   0.790
 1277SOL     OW 4073   2.093   3.575   0.483
 1277SOL    HW1 4074   2.127   3.652   0.537
 1277SOL    HW2 4075   2.137   3.575   0.393
 1278SOL     OW 4076   2.092   3.296   0.538
 1278SOL    HW1 4077   2.066   3.392   0.538
 1278SOL    HW2 4078   2.021   3.242   0.583
 1279SOL     OW 4079   2.102   2.953   0.886
 1279SOL    HW1 4080   2.116   2.869   0.938
 1279SOL    HW2 4081   2.047   3.017   0.941
 1280SOL     OW 4082   3.456   1.976   1.480
 1280SOL    HW1 4083   3.438   2.043   1.408
 1280SOL    HW2 4084   3.453   2.022   1.569
 1281SOL     OW 4085   1.984   2.505   0.563
 1281SOL    HW1 4086   1.939   2.417   0.580
 1281SOL    HW2 4087   1.983   2.559   0.647
 1282SOL     OW 4088   3.704   3.629   0.359
 1282SOL    HW1 4089   3.758   3.600   0.439
 1282SOL    HW2 4090   3.734   3.719   0.330
 1283SOL     OW 4091   1.889   3.458   0.117
 1283SOL    HW1 4092   1.870   3.362   0.138
 1283SOL    HW2 4093   1.856   3.516   0.192
 1284SOL     OW 4094   3.551   2.784   0.612
 1284SOL    HW1 4095   3.646   2.755   0.620
 1284SOL    HW2 4096   3.543   2.849   0.537
 1285SOL     OW 4097   3.503   2.970   0.432
 1285SOL    HW1 4098   3.589   2.972   0.380
 1285SOL    HW2 4099   3.517   3.017   0.520
 1286SOL     OW 4100   1.975   2.599   1.597
 1286SOL    HW1 4101   2.063   2.586   1.642
 1286SOL    HW2 4102   1.962   2.696   1.575
 1287SOL     OW 4103   2.475   3.227   0.726
 1287SOL    HW1 4104   2.426   3.140   0.735
 1287SOL    HW2 4105   2.452   3.270   0.639
 1288SOL     OW 4106   2.671   1.866   0.502
 1288SOL    HW1 4107   2.711   1.957   0.493
 1288SOL    HW2 4108   2.571   1.874   0.508
 1289SOL     OW 4109   2.059   2.838   1.264
 1289SOL    HW1 4110   2.148   2.793   1.250
 1289SOL    HW2 4111   1.986   2.773   1.245
 1290SOL     OW 4112   2.179   2.113   1.801
 1290SOL    HW1 4113   2.250   2.184   1.807
 1290SOL    HW2 4114   2.091   2.152   1.829
 1291SOL     OW 4115   3.328   3.279   0.953
 1291SOL    HW1 4116   3.269   3.285   1.033
 1291SOL    HW2 4117   3.313   3.191   0.907
 1292SOL     OW 4118   3.529   3.576   0.572
 1292SOL    HW1 4119   3.488   3.553   0.484
 1292SOL    HW2 4120   3.511   3.502   0.637
 1293SOL     OW 4121   3.143   2.207   0.944
 1293SOL    HW1 4122   3.057   2.157   0.931
 1293SOL    HW2 4123   3.205   2.153   1.000
 1294SOL     OW 4124   2.669   2.467   1.465
 1294SOL    HW1 4125   2.622   2.464   1.554
 1294SOL    HW2 4126   2.618   2.412   1.399
 1295SOL     OW 4127   3.256   2.331   1.674
 1295SOL    HW1 4128   3.236   2.374   1.762
 1295SOL    HW2 4129   3.334   2.269   1.683
 1296SOL     OW 4130   2.853   2.272   1.242
 1296SOL    HW1 4131   2.776   2.306   1.296
 1296SOL    HW2 4132   2.819   2.221   1.163
 1297SOL     OW 4133   2.903   2.563   0.429
 1297SOL    HW1 4134   2.929   2.559   0.525
 1297SOL    HW2 4135   2.818   2.512   0.415
 1298SOL     OW 4136   1.938   2.673   0.789
 1298SOL    HW1 4137   2.037   2.661   0.798
 1298SOL    HW2 4138   1.914   2.768   0.810
 1299SOL     OW 4139   1.992   3.683   1.571
 1299SOL    HW1 4140   1.982   3.668   1.670
 1299SOL    HW2 4141   1.906   3.719   1.535
 1300SOL     OW 4142   2.727   2.210   0.195
 1300SOL    HW1 4143   2.786   2.273   0.146
 1300SOL    HW2 4144   2.746   2.116   0.166
 1301SOL     OW 4145   3.224   3.006   0.545
 1301SOL    HW1 4146   3.307   2.977   0.497
 1301SOL    HW2 4147   3.175   3.073   0.489
 1302SOL     OW 4148   2.412   2.058   0.885
 1302SOL    HW1 4149   2.407   2.053   0.985
 1302SOL    HW2 4150   2.414   2.154   0.856
 1303SOL     OW 4151   2.870   3.318   0.477
 1303SOL    HW1 4152   2.824   3.390   0.425
 1303SOL    HW2 4153   2.866   3.338   0.575
 1304SOL     OW 4154   2.213   3.663   0.853
 1304SOL    HW1 4155   2.263   3.577   0.859
 1304SOL    HW2 4156   2.278   3.740   0.850
 1305SOL     OW 4157   3.320   2.597   0.728
 1305SOL    HW1 4158   3.315   2.532   0.803
 1305SOL    HW2 4159   3.400   2.656   0.741
 1306SOL     OW 4160   2.064   2.147   1.498
 1306SOL    HW1 4161   1.984   2.207   1.485
 1306SOL    HW2 4162   2.054   2.098   1.584
 1307SOL     OW 4163   2.326   3.605   0.323
 1307SOL    HW1 4164   2.359   3.644   0.409
 1307SOL    HW2 4165   2.402   3.598   0.258
 1308SOL     OW 4166   3.262   1.969   0.426
 1308SOL    HW1 4167   3.238   1.932   0.336
 1308SOL    HW2 4168   3.361   1.985   0.430
 1309SOL     OW 4169   2.802   3.560   0.904
 1309SOL    HW1 4170   2.882   3.503   0.925
 1309SOL    HW2 4171   2.753   3.520   0.827
 1310SOL     OW 4172   2.244   2.562   0.480
 1310SOL    HW1 4173   2.289   2.472   0.477
 1310SOL    HW2 4174   2.150   2.551   0.513
 1311SOL     OW 4175   3.409   2.084   1.729
 1311SOL    HW1 4176   3.404   2.121   1.821
 1311SOL    HW2 4177   3.337   2.015   1.717
 1312SOL     OW 4178   2.643   2.126   1.749
 1312SOL    HW1 4179   2.710   2.065   1.792
 1312SOL    HW2 4180   2.570   2.145   1.814
 1313SOL     OW 4181   2.784   2.365   0.899
 1313SOL    HW1 4182   2.759   2.356   0.803
 1313SOL    HW2 4183   2.832   2.283   0.930
 1314SOL     OW 4184   2.401   1.926   0.512
 1314SOL    HW1 4185   2.320   1.927   0.570
 1314SOL    HW2 4186   2.404   2.009   0.457
 1315SOL     OW 4187   2.797   2.098   0.480
 1315SOL    HW1 4188   2.749   2.139   0.402
 1315SOL    HW2 4189   2.896   2.096   0.461
 1316SOL     OW 4190   3.089   3.432   0.793
 1316SOL    HW1 4191   3.110   3.506   0.728
 1316SOL    HW2 4192   3.157   3.432   0.866
 1317SOL     OW 4193   2.321   3.014   0.741
 1317SOL    HW1 4194   2.250   2.987   0.806
 1317SOL    HW2 4195   2.295   2.986   0.648
 1318SOL     OW 4196   3.133   3.659   0.591
 1318SOL    HW1 4197   3.177   3.723   0.527
 1318SOL    HW2 4198   3.083   3.711   0.661
 1319SOL     OW 4199   1.940   2.418   1.386
 1319SOL    HW1 4200   2.032   2.417   1.345
 1319SOL    HW2 4201   1.934   2.492   1.453
 1320SOL     OW 4202   2.423   2.084   1.147
 1320SOL    HW1 4203   2.461   2.000   1.184
 1320SOL    HW2 4204   2.335   2.103   1.191
 1321SOL     OW 4205   2.728   2.316   0.642
 1321SOL    HW1 4206   2.696   2.388   0.580
 1321SOL    HW2 4207   2.752   2.235   0.589
 1322SOL     OW 4208   2.879   1.901   0.753
 1322SOL    HW1 4209   2.807   1.906   0.684
 1322SOL    HW2 4210   2.855   1.832   0.822
 1323SOL     OW 4211   3.291   3.035   0.867
 1323SOL    HW1 4212   3.236   2.951   0.860
 1323SOL    HW2 4213   3.317   3.064   0.775
 1324SOL     OW 4214   3.328   2.452   0.992
 1324SOL    HW1 4215   3.298   2.357   0.999
 1324SOL    HW2 4216   3.401   2.468   1.058
 1325SOL     OW 4217   3.719   2.695   0.377
 1325SOL    HW1 4218   3.761   2.631   0.441
 1325SOL    HW2 4219   3.681   2.644   0.299
 1326SOL     OW 4220   3.526   3.142   0.657
 1326SOL    HW1 4221   3.625   3.150   0.671
 1326SOL    HW2 4222   3.481   3.226   0.688
 1327SOL     OW 4223   2.389   2.118   0.328
 1327SOL    HW1 4224   2.416   2.059   0.253
 1327SOL    HW2 4225   2.389   2.213   0.297
 1328SOL     OW 4226   2.777   1.951   1.402
 1328SOL    HW1 4227   2.802   1.931   1.307
 1328SOL    HW2 4228   2.849   2.007   1.444
 1329SOL     OW 4229   2.567   2.912   0.368
 1329SOL    HW1 4230   2.553   2.919   0.467
 1329SOL    HW2 4231   2.651   2.861   0.350
 1330SOL     OW 4232   2.272   2.675   1.251
 1330SOL    HW1 4233   2.358   2.687   1.301
 1330SOL    HW2 4234   2.230   2.588   1.278
 1331SOL     OW 4235   3.136   2.248   1.262
 1331SOL    HW1 4236   3.157   2.322   1.326
 1331SOL    HW2 4237   3.047   2.265   1.219
 1332SOL     OW 4238   1.926   3.426   1.331
 1332SOL    HW1 4239   1.880   3.508   1.297
 1332SOL    HW2 4240   2.024   3.445   1.340
 1333SOL     OW 4241   2.229   2.962   0.501
 1333SOL    HW1 4242   2.222   3.045   0.445
 1333SOL    HW2 4243   2.233   2.882   0.441
 1334SOL     OW 4244   2.428   2.399   0.865
 1334SOL    HW1 4245   2.440   2.465   0.791
 1334SOL    HW2 4246   2.474   2.433   0.948
 1335SOL     OW 4247   3.134   3.307   1.142
 1335SOL    HW1 4248   3.181   3.320   1.229
 1335SOL    HW2 4249   3.068   3.233   1.151
 1336SOL     OW 4250   3.444   2.501   0.472
 1336SOL    HW1 4251   3.413   2.562   0.545
 1336SOL    HW2 4252   3.494   2.553   0.403
 1337SOL     OW 4253   2.216   3.372   1.329
 1337SOL    HW1 4254   2.195   3.328   1.242
 1337SOL    HW2 4255   2.313   3.398   1.332
 1338SOL     OW 4256   2.264   2.613   1.598
 1338SOL    HW1 4257   2.332   2.668   1.551
 1338SOL    HW2 4258   2.304   2.525   1.625
 1339SOL     OW 4259   2.875   1.967   1.770
 1339SOL    HW1 4260   2.881   2.052   1.718
 1339SOL    HW2 4261   2.907   1.891   1.713
 1340SOL     OW 4262   2.366   1.912   1.740
 1340SOL    HW1 4263   2.324   1.855   1.670
 1340SOL    HW2 4264   2.300   1.981   1.772
 1341SOL     OW 4265   2.435   2.732   1.029
 1341SOL    HW1 4266   2.479   2.821   1.020
 1341SOL    HW2 4267   2.372   2.732   1.106
 1342SOL     OW 4268   2.169   2.075   1.231
 1342SOL    HW1 4269   2.146   2.112   1.321
 1342SOL    HW2 4270   2.139   1.980   1.225
 1343SOL     OW 4271   1.899   3.172   1.282
 1343SOL    HW1 4272   1.952   3.123   1.350
 1343SOL    HW2 4273   1.921   3.270   1.287
 1344SOL     OW 4274   2.594   2.496   1.064
 1344SOL    HW1 4275   2.653   2.470   0.988
 1344SOL    HW2 4276   2.566   2.592   1.053
 1345SOL     OW 4277   2.169   1.925   0.618
 1345SOL    HW1 4278   2.158   2.019   0.651
 1345SOL    HW2 4279   2.164   1.862   0.695
 1346SOL     OW 4280   3.484   2.229   0.374
 1346SOL    HW1 4281   3.486   2.153   0.438
 1346SOL    HW2 4282   3.436   2.306   0.414
 1347SOL     OW 4283   2.212   2.760   1.804
 1347SOL    HW1 4284   2.288   2.804   1.852
 1347SOL    HW2 4285   2.247   2.713   1.722
 1348SOL     OW 4286   2.181   2.672   0.949
 1348SOL    HW1 4287   2.274   2.708   0.954
 1348SOL    HW2 4288   2.175   2.587   1.001
 1349SOL     OW 4289   2.201   2.371   1.006
 1349SOL    HW1 4290   2.149   2.288   0.989
 1349SOL    HW2 4291   2.278   2.376   0.942
 1350SOL     OW 4292   3.000   2.242   1.678
 1350SOL    HW1 4293   2.955   2.305   1.742
 1350SOL    HW2 4294   3.093   2.273   1.661
 1351SOL     OW 4295   3.022   2.069   1.477
 1351SOL    HW1 4296   3.022   2.133   1.554
 1351SOL    HW2 4297   3.050   2.117   1.394
 1352SOL     OW 4298   1.870   3.188   0.200
 1352SOL    HW1 4299   1.777   3.209   0.169
 1352SOL    HW2 4300   1.880   3.089   0.213
 1353SOL     OW 4301   1.950   3.663   0.927
 1353SOL    HW1 4302   1.908   3.577   0.900
 1353SOL    HW2 4303   2.044   3.666   0.893
 1354SOL     OW 4304   2.366   3.430   0.910
 1354SOL    HW1 4305   2.432   3.504   0.919
 1354SOL    HW2 4306   2.410   3.351   0.868
 1355SOL     OW 4307   1.902   2.406   1.114
 1355SOL    HW1 4308   1.987   2.373   1.073
 1355SOL    HW2 4309   1.915   2.421   1.212
 1356SOL     OW 4310   2.051   2.382   1.722
 1356SOL    HW1 4311   2.110   2.342   1.652
 1356SOL    HW2 4312   1.993   2.453   1.681
 1357SOL     OW 4313   3.519   2.466   1.206
 1357SOL    HW1 4314   3.481   2.397   1.268
 1357SOL    HW2 4315   3.601   2.430   1.162
 1358SOL     OW 4316   2.114   3.426   1.744
 1358SOL    HW1 4317   2.084   3.483   1.820
 1358SOL    HW2 4318   2.107   3.329   1.770
 1359SOL     OW 4319   2.533   2.326   1.269
 1359SOL    HW1 4320   2.499   2.237   1.239
 1359SOL    HW2 4321   2.559   2.380   1.189
 1360SOL     OW 4322   2.021   2.999   1.466
 1360SOL    HW1 4323   2.043   2.938   1.542
 1360SOL    HW2 4324   2.031   2.950   1.380
 1361SOL     OW 4325   3.621   3.609   1.154
 1361SOL    HW1 4326   3.682   3.639   1.081
 1361SOL    HW2 4327   3.583   3.520   1.132
 1362SOL     OW 4328   3.114   3.593   1.128
 1362SOL    HW1 4329   3.198   3.598   1.074
 1362SOL    HW2 4330   3.091   3.497   1.146
 1363SOL     OW 4331   1.945   3.120   1.022
 1363SOL    HW1 4332   1.940   3.119   1.122
 1363SOL    HW2 4333   1.862   3.079   0.984
 1364SOL     OW 4334   3.588   1.997   0.523
 1364SOL    HW1 4335   3.661   1.980   0.456
 1364SOL    HW2 4336   3.557   1.910   0.561
 1365SOL     OW 4337   3.250   3.435   0.477
 1365SOL    HW1 4338   3.317   3.447   0.403
 1365SOL    HW2 4339   3.210   3.524   0.500
 1366SOL     OW 4340   1.992   3.656   1.851
 1366SOL    HW1 4341   1.951   3.582   1.904
 1366SOL    HW2 4342   2.056   3.707   1.909
 1367SOL     OW 4343   3.142   2.789   0.672
 1367SOL    HW1 4344   3.202   2.708   0.674
 1367SOL    HW2 4345   3.182   2.858   0.612
 1368SOL     OW 4346   3.512   3.582   1.394
 1368SOL    HW1 4347   3.565   3.592   1.310
 1368SOL    HW2 4348   3.485   3.672   1.428
 1369SOL     OW 4349   3.703   2.037   0.963
 1369SOL    HW1 4350   3.742   1.952   0.927
 1369SOL    HW2 4351   3.605   2.039   0.944
 1370SOL     OW 4352   2.125   2.188   0.720
 1370SOL    HW1 4353   2.046   2.239   0.686
 1370SOL    HW2 4354   2.116   2.173   0.818
 1371SOL     OW 4355   2.778   2.772   0.291
 1371SOL    HW1 4356   2.841   2.810   0.223
 1371SOL    HW2 4357   2.818   2.689   0.330
 1372SOL     OW 4358   2.234   3.150   1.490
 1372SOL    HW1 4359   2.221   3.243   1.456
 1372SOL    HW2 4360   2.150   3.098   1.477
 1373SOL     OW 4361   2.901   2.960   0.696
 1373SOL    HW1 4362   2.831   2.913   0.750
 1373SOL    HW2 4363   2.960   2.892   0.653
 1374SOL     OW 4364   2.876   2.098   0.971
 1374SOL    HW1 4365   2.868   2.062   0.878
 1374SOL    HW2 4366   2.874   2.022   1.036
 1375SOL     OW 4367   2.452   3.349   0.491
 1375SOL    HW1 4368   2.494   3.291   0.421
 1375SOL    HW2 4369   2.408   3.428   0.447
 1376SOL     OW 4370   3.571   2.247   1.381
 1376SOL    HW1 4371   3.644   2.316   1.385
 1376SOL    HW2 4372   3.599   2.172   1.322
 1377SOL     OW 4373   2.117   3.210   0.290
 1377SOL    HW1 4374   2.021   3.211   0.263
 1377SOL    HW2 4375   2.129   3.263   0.374
 1378SOL     OW 4376   1.967   2.875   1.726
 1378SOL    HW1 4377   1.890   2.842   1.780
 1378SOL    HW2 4378   2.052   2.845   1.768
 1379SOL     OW 4379   2.534   2.065   1.489
 1379SOL    HW1 4380   2.624   2.049   1.449
 1379SOL    HW2 4381   2.542   2.070   1.588
 1380SOL     OW 4382   1.937   2.207   0.033
 1380SOL    HW1 4383   1.845   2.179   0.004
 1380SOL    HW2 4384   1.968   2.284  -0.023
 1381SOL     OW 4385   1.934   2.028   0.318
 1381SOL    HW1 4386   1.917   2.111   0.264
 1381SOL    HW2 4387   2.024   1.991   0.296
 1382SOL     OW 4388   2.475   2.704   1.431
 1382SOL    HW1 4389   2.531   2.785   1.414
 1382SOL    HW2 4390   2.534   2.624   1.434
 1383SOL     OW 4391   3.355   3.629   0.959
 1383SOL    HW1 4392   3.388   3.693   0.890
 1383SOL    HW2 4393   3.421   3.623   1.034
 1384SOL     OW 4394   2.578   2.427   1.708
 1384SOL    HW1 4395   2.597   2.492   1.782
 1384SOL    HW2 4396   2.638   2.347   1.717
 1385SOL     OW 4397   3.087   2.187   0.449
 1385SOL    HW1 4398   3.152   2.113   0.438
 1385SOL    HW2 4399   3.107   2.237   0.533
 1386SOL     OW 4400   2.456   2.607   0.652
 1386SOL    HW1 4401   2.506   2.692   0.633
 1386SOL    HW2 4402   2.368   2.609   0.604
 1387SOL     OW 4403   3.639   2.204   1.642
 1387SOL    HW1 4404   3.622   2.235   1.548
 1387SOL    HW2 4405   3.555   2.167   1.680
 1388SOL     OW 4406   2.721   3.236   0.016
 1388SOL    HW1 4407   2.675   3.251   0.104
 1388SOL    HW2 4408   2.765   3.321  -0.014
 1389SOL     OW 4409   2.523   3.652   0.953
 1389SOL    HW1 4410   2.477   3.740   0.940
 1389SOL    HW2 4411   2.622   3.664   0.946
 1390SOL     OW 4412   3.723   3.431   0.851
 1390SOL    HW1 4413   3.652   3.419   0.781
 1390SOL    HW2 4414   3.724   3.352   0.911
 1391SOL     OW 4415   2.083   3.176   1.844
 1391SOL    HW1 4416   2.018   3.103   1.823
 1391SOL    HW2 4417   2.087   3.190   1.942
 1392SOL     OW 4418   1.941   3.102   0.653
 1392SOL    HW1 4419   1.940   3.055   0.741
 1392SOL    HW2 4420   2.023   3.074   0.602
 1393SOL     OW 4421   3.686   2.054   1.227
 1393SOL    HW1 4422   3.682   1.964   1.271
 1393SOL    HW2 4423   3.689   2.043   1.128
 1394SOL     OW 4424   2.290   2.286   0.520
 1394SOL    HW1 4425   2.320   2.214   0.458
 1394SOL    HW2 4426   2.251   2.246   0.603
 1395SOL     OW 4427   2.179   2.409   1.280
 1395SOL    HW1 4428   2.217   2.350   1.352
 1395SOL    HW2 4429   2.219   2.383   1.192
 1396SOL     OW 4430   2.674   3.448   0.687
 1396SOL    HW1 4431   2.706   3.458   0.593
 1396SOL    HW2 4432   2.595   3.386   0.689
 1397SOL     OW 4433   3.286   2.076   1.112
 1397SOL    HW1 4434   3.338   2.011   1.167
 1397SOL    HW2 4435   3.237   2.139   1.173
 1398SOL     OW 4436   2.863   1.896   1.154
 1398SOL    HW1 4437   2.800   1.824   1.123
 1398SOL    HW2 4438   2.956   1.860   1.154
 1399SOL     OW 4439   2.632   3.192   0.301
 1399SOL    HW1 4440   2.586   3.105   0.318
 1399SOL    HW2 4441   2.723   3.189   0.342
 1400SOL     OW 4442   3.162   2.315   0.691
 1400SOL    HW1 4443   3.103   2.395   0.695
 1400SOL    HW2 4444   3.177   2.280   0.784
 1401SOL     OW 4445   3.455   2.083   0.882
 1401SOL    HW1 4446   3.371   2.082   0.936
 1401SOL    HW2 4447   3.457   2.166   0.826
 1402SOL     OW 4448   1.901   2.939   0.300
 1402SOL    HW1 4449   2.000   2.928   0.291
 1402SOL    HW2 4450   1.861   2.853   0.332
 1403SOL     OW 4451   2.092   2.490   1.975
 1403SOL    HW1 4452   1.999   2.488   2.012
 1403SOL    HW2 4453   2.093   2.451   1.883
 1404SOL     OW 4454   2.087   2.137   2.858
 1404SOL    HW1 4455   2.122   2.120   2.950
 1404SOL    HW2 4456   1.999   2.092   2.846
 1405SOL     OW 4457   1.881   2.230   2.509
 1405SOL    HW1 4458   1.799   2.273   2.548
 1405SOL    HW2 4459   1.853   2.157   2.446
 1406SOL     OW 4460   2.431   3.137   3.027
 1406SOL    HW1 4461   2.338   3.130   2.990
 1406SOL    HW2 4462   2.442   3.226   3.071
 1407SOL     OW 4463   3.417   3.373   2.565
 1407SOL    HW1 4464   3.360   3.357   2.646
 1407SOL    HW2 4465   3.358   3.383   2.485
 1408SOL     OW 4466   2.997   2.565   2.579
 1408SOL    HW1 4467   3.054   2.643   2.554
 1408SOL    HW2 4468   2.937   2.591   2.655
 1409SOL     OW 4469   3.617   2.469   2.093
 1409SOL    HW1 4470   3.605   2.456   1.994
 1409SOL    HW2 4471   3.587   2.388   2.142
 1410SOL     OW 4472   2.630   3.006   2.885
 1410SOL    HW1 4473   2.552   3.023   2.945
 1410SOL    HW2 4474   2.664   3.093   2.849
 1411SOL     OW 4475   2.547   2.874   2.527
 1411SOL    HW1 4476   2.616   2.858   2.597
 1411SOL    HW2 4477   2.474   2.931   2.565
 1412SOL     OW 4478   2.197   3.297   2.923
 1412SOL    HW1 4479   2.119   3.266   2.870
 1412SOL    HW2 4480   2.255   3.355   2.866
 1413SOL     OW 4481   3.465   2.309   2.599
 1413SOL    HW1 4482   3.391   2.355   2.549
 1413SOL    HW2 4483   3.516   2.377   2.652
 1414SOL     OW 4484   2.093   3.575   2.345
 1414SOL    HW1 4485   2.127   3.652   2.399
 1414SOL    HW2 4486   2.137   3.575   2.255
 1415SOL     OW 4487   2.092   3.296   2.400
 1415SOL    HW1 4488   2.066   3.392   2.400
 1415SOL    HW2 4489   2.021   3.242   2.445
 1416SOL     OW 4490   2.102   2.953   2.748
 1416SOL    HW1 4491   2.116   2.869   2.800
 1416SOL    HW2 4492   2.047   3.017   2.803
 1417SOL     OW 4493   2.468   2.826   1.985
 1417SOL    HW1 4494   2.475   2.910   1.931
 1417SOL    HW2 4495   2.514   2.839   2.073
 1418SOL     OW 4496   1.984   2.505   2.425
 1418SOL    HW1 4497   1.939   2.417   2.442
 1418SOL    HW2 4498   1.983   2.559   2.509
 1419SOL     OW 4499   3.704   3.629   2.221
 1419SOL    HW1 4500   3.758   3.600   2.301
 1419SOL    HW2 4501   3.734   3.719   2.192
 1420SOL     OW 4502   1.889   3.458   1.979
 1420SOL    HW1 4503   1.870   3.362   2.000
 1420SOL    HW2 4504   1.856   3.516   2.054
 1421SOL     OW 4505   3.551   2.784   2.474
 1421SOL    HW1 4506   3.646   2.755   2.482
 1421SOL    HW2 4507   3.543   2.849   2.399
 1422SOL     OW 4508   3.503   2.970   2.294
 1422SOL    HW1 4509   3.589   2.972   2.242
 1422SOL    HW2 4510   3.517   3.017   2.382
 1423SOL     OW 4511   2.475   3.227   2.588
 1423SOL    HW1 4512   2.426   3.140   2.597
 1423SOL    HW2 4513   2.452   3.270   2.501
 1424SOL     OW 4514   2.671   1.866   2.364
 1424SOL    HW1 4515   2.711   1.957   2.355
 1424SOL    HW2 4516   2.571   1.874   2.370
 1425SOL     OW 4517   2.059   2.838   3.126
 1425SOL    HW1 4518   2.148   2.793   3.112
 1425SOL    HW2 4519   1.986   2.773   3.107
 1426SOL     OW 4520   3.387   2.861   2.052
 1426SOL    HW1 4521   3.324   2.785   2.065
 1426SOL    HW2 4522   3.435   2.879   2.138
 1427SOL     OW 4523   3.328   3.279   2.815
 1427SOL    HW1 4524   3.269   3.285   2.895
 1427SOL    HW2 4525   3.313   3.191   2.769
 1428SOL     OW 4526   3.529   3.576   2.434
 1428SOL    HW1 4527   3.488   3.553   2.346
 1428SOL    HW2 4528   3.511   3.502   2.499
 1429SOL     OW 4529   2.460   2.591   2.132
 1429SOL    HW1 4530   2.484   2.660   2.064
 1429SOL    HW2 4531   2.382   2.624   2.186
 1430SOL     OW 4532   3.143   2.207   2.806
 1430SOL    HW1 4533   3.057   2.157   2.793
 1430SOL    HW2 4534   3.205   2.153   2.862
 1431SOL     OW 4535   2.903   2.563   2.291
 1431SOL    HW1 4536   2.929   2.559   2.387
 1431SOL    HW2 4537   2.818   2.512   2.277
 1432SOL     OW 4538   1.938   2.673   2.651
 1432SOL    HW1 4539   2.037   2.661   2.660
 1432SOL    HW2 4540   1.914   2.768   2.672
 1433SOL     OW 4541   2.727   2.210   2.057
 1433SOL    HW1 4542   2.786   2.273   2.008
 1433SOL    HW2 4543   2.746   2.116   2.028
 1434SOL     OW 4544   3.224   3.006   2.407
 1434SOL    HW1 4545   3.307   2.977   2.359
 1434SOL    HW2 4546   3.175   3.073   2.351
 1435SOL     OW 4547   2.412   2.058   2.747
 1435SOL    HW1 4548   2.407   2.053   2.847
 1435SOL    HW2 4549   2.414   2.154   2.718
 1436SOL     OW 4550   2.870   3.318   2.339
 1436SOL    HW1 4551   2.824   3.390   2.287
 1436SOL    HW2 4552   2.866   3.338   2.437
 1437SOL     OW 4553   2.213   3.663   2.715
 1437SOL    HW1 4554   2.263   3.577   2.721
 1437SOL    HW2 4555   2.278   3.740   2.712
 1438SOL     OW 4556   3.657   2.928   2.735
 1438SOL    HW1 4557   3.595   2.913   2.659
 1438SOL    HW2 4558   3.605   2.939   2.820
 1439SOL     OW 4559   2.183   2.805   2.104
 1439SOL    HW1 4560   2.265   2.844   2.062
 1439SOL    HW2 4561   2.156   2.723   2.055
 1440SOL     OW 4562   3.320   2.597   2.590
 1440SOL    HW1 4563   3.315   2.532   2.665
 1440SOL    HW2 4564   3.400   2.656   2.603
 1441SOL     OW 4565   2.064   2.147   3.360
 1441SOL    HW1 4566   1.984   2.207   3.347
 1441SOL    HW2 4567   2.054   2.098   3.446
 1442SOL     OW 4568   2.326   3.605   2.185
 1442SOL    HW1 4569   2.359   3.644   2.271
 1442SOL    HW2 4570   2.402   3.598   2.120
 1443SOL     OW 4571   3.262   1.969   2.288
 1443SOL    HW1 4572   3.238   1.932   2.198
 1443SOL    HW2 4573   3.361   1.985   2.292
 1444SOL     OW 4574   2.111   3.647   3.103
 1444SOL    HW1 4575   2.168   3.582   3.153
 1444SOL    HW2 4576   2.095   3.614   3.010
 1445SOL     OW 4577   2.802   3.560   2.766
 1445SOL    HW1 4578   2.882   3.503   2.787
 1445SOL    HW2 4579   2.753   3.520   2.689
 1446SOL     OW 4580   2.244   2.562   2.342
 1446SOL    HW1 4581   2.289   2.472   2.339
 1446SOL    HW2 4582   2.150   2.551   2.375
 1447SOL     OW 4583   2.476   1.984   1.979
 1447SOL    HW1 4584   2.574   1.962   1.986
 1447SOL    HW2 4585   2.445   1.967   1.886
 1448SOL     OW 4586   2.665   3.264   2.786
 1448SOL    HW1 4587   2.755   3.278   2.744
 1448SOL    HW2 4588   2.594   3.266   2.715
 1449SOL     OW 4589   2.784   2.365   2.761
 1449SOL    HW1 4590   2.759   2.356   2.665
 1449SOL    HW2 4591   2.832   2.283   2.792
 1450SOL     OW 4592   2.401   1.926   2.374
 1450SOL    HW1 4593   2.320   1.927   2.432
 1450SOL    HW2 4594   2.404   2.009   2.319
 1451SOL     OW 4595   2.159   1.897   2.033
 1451SOL    HW1 4596   2.208   1.981   2.012
 1451SOL    HW2 4597   2.221   1.832   2.078
 1452SOL     OW 4598   2.797   2.098   2.342
 1452SOL    HW1 4599   2.749   2.139   2.264
 1452SOL    HW2 4600   2.896   2.096   2.323
 1453SOL     OW 4601   3.089   3.432   2.655
 1453SOL    HW1 4602   3.110   3.506   2.590
 1453SOL    HW2 4603   3.157   3.432   2.728
 1454SOL     OW 4604   2.321   3.014   2.603
 1454SOL    HW1 4605   2.250   2.987   2.668
 1454SOL    HW2 4606   2.295   2.986   2.510
 1455SOL     OW 4607   3.133   3.659   2.453
 1455SOL    HW1 4608   3.177   3.723   2.389
 1455SOL    HW2 4609   3.083   3.711   2.523
 1456SOL     OW 4610   2.894   2.411   1.878
 1456SOL    HW1 4611   2.853   2.493   1.839
 1456SOL    HW2 4612   2.958   2.437   1.951
 1457SOL     OW 4613   1.940   2.418   3.248
 1457SOL    HW1 4614   2.032   2.417   3.207
 1457SOL    HW2 4615   1.934   2.492   3.315
 1458SOL     OW 4616   2.423   2.084   3.009
 1458SOL    HW1 4617   2.461   2.000   3.046
 1458SOL    HW2 4618   2.335   2.103   3.053
 1459SOL     OW 4619   2.728   2.316   2.504
 1459SOL    HW1 4620   2.696   2.388   2.442
 1459SOL    HW2 4621   2.752   2.235   2.451
 1460SOL     OW 4622   2.879   1.901   2.615
 1460SOL    HW1 4623   2.807   1.906   2.546
 1460SOL    HW2 4624   2.855   1.832   2.684
 1461SOL     OW 4625   3.291   3.035   2.729
 1461SOL    HW1 4626   3.236   2.951   2.722
 1461SOL    HW2 4627   3.317   3.064   2.637
 1462SOL     OW 4628   3.328   2.452   2.854
 1462SOL    HW1 4629   3.298   2.357   2.861
 1462SOL    HW2 4630   3.401   2.468   2.920
 1463SOL     OW 4631   3.719   2.695   2.239
 1463SOL    HW1 4632   3.761   2.631   2.303
 1463SOL    HW2 4633   3.681   2.644   2.161
 1464SOL     OW 4634   2.350   3.247   2.036
 1464SOL    HW1 4635   2.263   3.232   2.083
 1464SOL    HW2 4636   2.333   3.273   1.941
 1465SOL     OW 4637   3.526   3.142   2.519
 1465SOL    HW1 4638   3.625   3.150   2.533
 1465SOL    HW2 4639   3.481   3.226   2.550
 1466SOL     OW 4640   3.252   2.437   1.940
 1466SOL    HW1 4641   3.198   2.416   2.021
 1466SOL    HW2 4642   3.343   2.396   1.949
 1467SOL     OW 4643   2.389   2.118   2.190
 1467SOL    HW1 4644   2.416   2.059   2.115
 1467SOL    HW2 4645   2.389   2.213   2.159
 1468SOL     OW 4646   2.973   3.057   2.962
 1468SOL    HW1 4647   2.933   3.101   3.043
 1468SOL    HW2 4648   2.932   3.094   2.879
 1469SOL     OW 4649   2.777   1.951   3.264
 1469SOL    HW1 4650   2.802   1.931   3.169
 1469SOL    HW2 4651   2.849   2.007   3.306
 1470SOL     OW 4652   2.567   2.912   2.230
 1470SOL    HW1 4653   2.553   2.919   2.329
 1470SOL    HW2 4654   2.651   2.861   2.212
 1471SOL     OW 4655   1.926   3.426   3.193
 1471SOL    HW1 4656   1.880   3.508   3.159
 1471SOL    HW2 4657   2.024   3.445   3.202
 1472SOL     OW 4658   2.229   2.962   2.363
 1472SOL    HW1 4659   2.222   3.045   2.307
 1472SOL    HW2 4660   2.233   2.882   2.303
 1473SOL     OW 4661   2.428   2.399   2.727
 1473SOL    HW1 4662   2.440   2.465   2.653
 1473SOL    HW2 4663   2.474   2.433   2.810
 1474SOL     OW 4664   3.114   3.210   2.250
 1474SOL    HW1 4665   3.164   3.287   2.290
 1474SOL    HW2 4666   3.019   3.212   2.282
 1475SOL     OW 4667   3.444   2.501   2.334
 1475SOL    HW1 4668   3.413   2.562   2.407
 1475SOL    HW2 4669   3.494   2.553   2.265
 1476SOL     OW 4670   2.435   2.732   2.891
 1476SOL    HW1 4671   2.479   2.821   2.882
 1476SOL    HW2 4672   2.372   2.732   2.968
 1477SOL     OW 4673   3.222   2.724   2.907
 1477SOL    HW1 4674   3.147   2.724   2.841
 1477SOL    HW2 4675   3.259   2.632   2.916
 1478SOL     OW 4676   3.071   2.387   2.137
 1478SOL    HW1 4677   3.084   2.303   2.191
 1478SOL    HW2 4678   3.042   2.461   2.197
 1479SOL     OW 4679   2.169   2.075   3.093
 1479SOL    HW1 4680   2.146   2.112   3.183
 1479SOL    HW2 4681   2.139   1.980   3.087
 1480SOL     OW 4682   1.899   3.172   3.144
 1480SOL    HW1 4683   1.952   3.123   3.212
 1480SOL    HW2 4684   1.921   3.270   3.149
 1481SOL     OW 4685   2.594   2.496   2.926
 1481SOL    HW1 4686   2.653   2.470   2.850
 1481SOL    HW2 4687   2.566   2.592   2.915
 1482SOL     OW 4688   2.169   1.925   2.480
 1482SOL    HW1 4689   2.158   2.019   2.513
 1482SOL    HW2 4690   2.164   1.862   2.557
 1483SOL     OW 4691   3.484   2.229   2.236
 1483SOL    HW1 4692   3.486   2.153   2.300
 1483SOL    HW2 4693   3.436   2.306   2.276
 1484SOL     OW 4694   2.885   2.628   2.828
 1484SOL    HW1 4695   2.900   2.649   2.924
 1484SOL    HW2 4696   2.855   2.533   2.819
 1485SOL     OW 4697   3.402   2.136   1.987
 1485SOL    HW1 4698   3.341   2.061   2.010
 1485SOL    HW2 4699   3.424   2.188   2.070
 1486SOL     OW 4700   2.930   3.195   2.711
 1486SOL    HW1 4701   2.937   3.111   2.656
 1486SOL    HW2 4702   2.992   3.264   2.675
 1487SOL     OW 4703   2.181   2.672   2.811
 1487SOL    HW1 4704   2.274   2.708   2.816
 1487SOL    HW2 4705   2.175   2.587   2.863
 1488SOL     OW 4706   2.201   2.371   2.868
 1488SOL    HW1 4707   2.149   2.288   2.851
 1488SOL    HW2 4708   2.278   2.376   2.804
 1489SOL     OW 4709   1.870   3.188   2.062
 1489SOL    HW1 4710   1.777   3.209   2.031
 1489SOL    HW2 4711   1.880   3.089   2.075
 1490SOL     OW 4712   1.950   3.663   2.789
 1490SOL    HW1 4713   1.908   3.577   2.762
 1490SOL    HW2 4714   2.044   3.666   2.755
 1491SOL     OW 4715   2.366   3.430   2.772
 1491SOL    HW1 4716   2.432   3.504   2.781
 1491SOL    HW2 4717   2.410   3.351   2.730
 1492SOL     OW 4718   2.864   2.658   3.100
 1492SOL    HW1 4719   2.905   2.626   3.186
 1492SOL    HW2 4720   2.768   2.631   3.097
 1493SOL     OW 4721   1.902   2.406   2.976
 1493SOL    HW1 4722   1.987   2.373   2.935
 1493SOL    HW2 4723   1.915   2.421   3.074
 1494SOL     OW 4724   2.677   2.434   2.187
 1494SOL    HW1 4725   2.684   2.345   2.141
 1494SOL    HW2 4726   2.583   2.468   2.179
 1495SOL     OW 4727   3.519   2.466   3.068
 1495SOL    HW1 4728   3.481   2.397   3.130
 1495SOL    HW2 4729   3.601   2.430   3.024
 1496SOL     OW 4730   2.335   2.362   2.053
 1496SOL    HW1 4731   2.396   2.442   2.057
 1496SOL    HW2 4732   2.240   2.393   2.060
 1497SOL     OW 4733   2.021   2.999   3.328
 1497SOL    HW1 4734   2.043   2.938   3.404
 1497SOL    HW2 4735   2.031   2.950   3.242
 1498SOL     OW 4736   3.164   2.717   2.171
 1498SOL    HW1 4737   3.078   2.686   2.213
 1498SOL    HW2 4738   3.160   2.703   2.072
 1499SOL     OW 4739   3.621   3.609   3.016
 1499SOL    HW1 4740   3.682   3.639   2.943
 1499SOL    HW2 4741   3.583   3.520   2.994
 1500SOL     OW 4742   1.945   3.120   2.884
 1500SOL    HW1 4743   1.940   3.119   2.984
 1500SOL    HW2 4744   1.862   3.079   2.846
 1501SOL     OW 4745   3.588   1.997   2.385
 1501SOL    HW1 4746   3.661   1.980   2.318
 1501SOL    HW2 4747   3.557   1.910   2.423
 1502SOL     OW 4748   3.250   3.435   2.339
 1502SOL    HW1 4749   3.317   3.447   2.265
 1502SOL    HW2 4750   3.210   3.524   2.362
 1503SOL     OW 4751   3.142   2.789   2.534
 1503SOL    HW1 4752   3.202   2.708   2.536
 1503SOL    HW2 4753   3.182   2.858   2.474
 1504SOL     OW 4754   2.534   3.478   2.016
 1504SOL    HW1 4755   2.543   3.488   1.917
 1504SOL    HW2 4756   2.494   3.389   2.037
 1505SOL     OW 4757   3.703   2.037   2.825
 1505SOL    HW1 4758   3.742   1.952   2.789
 1505SOL    HW2 4759   3.605   2.039   2.806
 1506SOL     OW 4760   2.125   2.188   2.582
 1506SOL    HW1 4761   2.046   2.239   2.548
 1506SOL    HW2 4762   2.116   2.173   2.680
 1507SOL     OW 4763   2.778   2.772   2.153
 1507SOL    HW1 4764   2.841   2.810   2.085
 1507SOL    HW2 4765   2.818   2.689   2.192
 1508SOL     OW 4766   2.901   2.960   2.558
 1508SOL    HW1 4767   2.831   2.913   2.612
 1508SOL    HW2 4768   2.960   2.892   2.515
 1509SOL     OW 4769   2.876   2.098   2.833
 1509SOL    HW1 4770   2.868   2.062   2.740
 1509SOL    HW2 4771   2.874   2.022   2.898
 1510SOL     OW 4772   2.452   3.349   2.353
 1510SOL    HW1 4773   2.494   3.291   2.283
 1510SOL    HW2 4774   2.408   3.428   2.309
 1511SOL     OW 4775   2.117   3.210   2.152
 1511SOL    HW1 4776   2.021   3.211   2.125
 1511SOL    HW2 4777   2.129   3.263   2.236
 1512SOL     OW 4778   1.937   2.207   1.895
 1512SOL    HW1 4779   1.845   2.179   1.866
 1512SOL    HW2 4780   1.968   2.284   1.839
 1513SOL     OW 4781   1.934   2.028   2.180
 1513SOL    HW1 4782   1.917   2.111   2.126
 1513SOL    HW2 4783   2.024   1.991   2.158
 1514SOL     OW 4784   3.355   3.629   2.821
 1514SOL    HW1 4785   3.388   3.693   2.752
 1514SOL    HW2 4786   3.421   3.623   2.896
 1515SOL     OW 4787   3.087   2.187   2.311
 1515SOL    HW1 4788   3.152   2.113   2.300
 1515SOL    HW2 4789   3.107   2.237   2.395
 1516SOL     OW 4790   2.456   2.607   2.514
 1516SOL    HW1 4791   2.506   2.692   2.495
 1516SOL    HW2 4792   2.368   2.609   2.466
 1517SOL     OW 4793   2.721   3.236   1.878
 1517SOL    HW1 4794   2.675   3.251   1.966
 1517SOL    HW2 4795   2.765   3.321   1.848
 1518SOL     OW 4796   2.523   3.652   2.815
 1518SOL    HW1 4797   2.477   3.740   2.802
 1518SOL    HW2 4798   2.622   3.664   2.808
 1519SOL     OW 4799   2.721   2.818   2.723
 1519SOL    HW1 4800   2.775   2.749   2.771
 1519SOL    HW2 4801   2.689   2.887   2.789
 1520SOL     OW 4802   3.723   3.431   2.713
 1520SOL    HW1 4803   3.652   3.419   2.643
 1520SOL    HW2 4804   3.724   3.352   2.773
 1521SOL     OW 4805   1.941   3.102   2.515
 1521SOL    HW1 4806   1.940   3.055   2.603
 1521SOL    HW2 4807   2.023   3.074   2.464
 1522SOL     OW 4808   3.686   2.054   3.089
 1522SOL    HW1 4809   3.682   1.964   3.133
 1522SOL    HW2 4810   3.689   2.043   2.990
 1523SOL     OW 4811   2.290   2.286   2.382
 1523SOL    HW1 4812   2.320   2.214   2.320
 1523SOL    HW2 4813   2.251   2.246   2.465
 1524SOL     OW 4814   2.674   3.448   2.549
 1524SOL    HW1 4815   2.706   3.458   2.455
 1524SOL    HW2 4816   2.595   3.386   2.551
 1525SOL     OW 4817   2.863   1.896   3.016
 1525SOL    HW1 4818   2.800   1.824   2.985
 1525SOL    HW2 4819   2.956   1.860   3.016
 1526SOL     OW 4820   2.632   3.192   2.163
 1526SOL    HW1 4821   2.586   3.105   2.180
 1526SOL    HW2 4822   2.723   3.189   2.204
 1527SOL     OW 4823   2.480   3.429   3.146
 1527SOL    HW1 4824   2.475   3.511   3.203
 1527SOL    HW2 4825   2.569   3.426   3.101
 1528SOL     OW 4826   3.214   1.914   2.030
 1528SOL    HW1 4827   3.249   1.873   1.946
 1528SOL    HW2 4828   3.124   1.876   2.050
 1529SOL     OW 4829   3.162   2.315   2.553
 1529SOL    HW1 4830   3.103   2.395   2.557
 1529SOL    HW2 4831   3.177   2.280   2.646
 1530SOL     OW 4832   3.455   2.083   2.744
 1530SOL    HW1 4833   3.371   2.082   2.798
 1530SOL    HW2 4834   3.457   2.166   2.688
 1531SOL     OW 4835   1.901   2.939   2.162
 1531SOL    HW1 4836   2.000   2.928   2.153
 1531SOL    HW2 4837   1.861   2.853   2.194
 1532SOL     OW 4838   2.737   3.508   2.199
 1532SOL    HW1 4839   2.660   3.473   2.145
 1532SOL    HW2 4840   2.705   3.579   2.261
 1533SOL     OW 4841   2.092   4.352   0.113
 1533SOL    HW1 4842   1.999   4.350   0.150
 1533SOL    HW2 4843   2.093   4.313   0.021
 1534SOL     OW 4844   2.087   3.999   0.996
 1534SOL    HW1 4845   2.122   3.982   1.088
 1534SOL    HW2 4846   1.999   3.954   0.984
 1535SOL     OW 4847   1.881   4.092   0.647
 1535SOL    HW1 4848   1.799   4.135   0.686
 1535SOL    HW2 4849   1.853   4.019   0.584
 1536SOL     OW 4850   3.617   4.331   0.231
 1536SOL    HW1 4851   3.605   4.318   0.132
 1536SOL    HW2 4852   3.587   4.250   0.280
 1537SOL     OW 4853   2.300   4.116   1.499
 1537SOL    HW1 4854   2.382   4.060   1.508
 1537SOL    HW2 4855   2.219   4.058   1.503
 1538SOL     OW 4856   3.465   4.171   0.737
 1538SOL    HW1 4857   3.391   4.217   0.687
 1538SOL    HW2 4858   3.516   4.239   0.790
 1539SOL     OW 4859   1.984   4.367   0.563
 1539SOL    HW1 4860   1.939   4.279   0.580
 1539SOL    HW2 4861   1.983   4.421   0.647
 1540SOL     OW 4862   2.671   3.728   0.502
 1540SOL    HW1 4863   2.711   3.819   0.493
 1540SOL    HW2 4864   2.571   3.736   0.508
 1541SOL     OW 4865   2.179   3.975   1.801
 1541SOL    HW1 4866   2.250   4.046   1.807
 1541SOL    HW2 4867   2.091   4.014   1.829
 1542SOL     OW 4868   3.143   4.069   0.944
 1542SOL    HW1 4869   3.057   4.019   0.931
 1542SOL    HW2 4870   3.205   4.015   1.000
 1543SOL     OW 4871   2.669   4.329   1.465
 1543SOL    HW1 4872   2.622   4.326   1.554
 1543SOL    HW2 4873   2.618   4.274   1.399
 1544SOL     OW 4874   2.903   4.425   0.429
 1544SOL    HW1 4875   2.929   4.421   0.525
 1544SOL    HW2 4876   2.818   4.374   0.415
 1545SOL     OW 4877   1.938   4.535   0.789
 1545SOL    HW1 4878   2.037   4.523   0.798
 1545SOL    HW2 4879   1.914   4.630   0.810
 1546SOL     OW 4880   2.412   3.920   0.885
 1546SOL    HW1 4881   2.407   3.915   0.985
 1546SOL    HW2 4882   2.414   4.016   0.856
 1547SOL     OW 4883   3.320   4.459   0.728
 1547SOL    HW1 4884   3.315   4.394   0.803
 1547SOL    HW2 4885   3.400   4.518   0.741
 1548SOL     OW 4886   2.064   4.009   1.498
 1548SOL    HW1 4887   1.984   4.069   1.485
 1548SOL    HW2 4888   2.054   3.960   1.584
 1549SOL     OW 4889   3.262   3.831   0.426
 1549SOL    HW1 4890   3.238   3.794   0.336
 1549SOL    HW2 4891   3.361   3.847   0.430
 1550SOL     OW 4892   2.643   3.988   1.749
 1550SOL    HW1 4893   2.710   3.927   1.792
 1550SOL    HW2 4894   2.570   4.007   1.814
 1551SOL     OW 4895   2.784   4.227   0.899
 1551SOL    HW1 4896   2.759   4.218   0.803
 1551SOL    HW2 4897   2.832   4.145   0.930
 1552SOL     OW 4898   2.401   3.788   0.512
 1552SOL    HW1 4899   2.320   3.789   0.570
 1552SOL    HW2 4900   2.404   3.871   0.457
 1553SOL     OW 4901   2.797   3.960   0.480
 1553SOL    HW1 4902   2.749   4.001   0.402
 1553SOL    HW2 4903   2.896   3.958   0.461
 1554SOL     OW 4904   2.938   4.407   1.464
 1554SOL    HW1 4905   2.858   4.346   1.467
 1554SOL    HW2 4906   3.019   4.354   1.440
 1555SOL     OW 4907   1.940   4.280   1.386
 1555SOL    HW1 4908   2.032   4.279   1.345
 1555SOL    HW2 4909   1.934   4.354   1.453
 1556SOL     OW 4910   2.423   3.946   1.147
 1556SOL    HW1 4911   2.461   3.862   1.184
 1556SOL    HW2 4912   2.335   3.965   1.191
 1557SOL     OW 4913   2.728   4.178   0.642
 1557SOL    HW1 4914   2.696   4.250   0.580
 1557SOL    HW2 4915   2.752   4.097   0.589
 1558SOL     OW 4916   2.879   3.763   0.753
 1558SOL    HW1 4917   2.807   3.768   0.684
 1558SOL    HW2 4918   2.855   3.694   0.822
 1559SOL     OW 4919   3.328   4.314   0.992
 1559SOL    HW1 4920   3.298   4.219   0.999
 1559SOL    HW2 4921   3.401   4.330   1.058
 1560SOL     OW 4922   2.389   3.980   0.328
 1560SOL    HW1 4923   2.416   3.921   0.253
 1560SOL    HW2 4924   2.389   4.075   0.297
 1561SOL     OW 4925   3.136   4.110   1.262
 1561SOL    HW1 4926   3.157   4.184   1.326
 1561SOL    HW2 4927   3.047   4.127   1.219
 1562SOL     OW 4928   2.428   4.261   0.865
 1562SOL    HW1 4929   2.440   4.327   0.791
 1562SOL    HW2 4930   2.474   4.295   0.948
 1563SOL     OW 4931   3.444   4.363   0.472
 1563SOL    HW1 4932   3.413   4.424   0.545
 1563SOL    HW2 4933   3.494   4.415   0.403
 1564SOL     OW 4934   2.366   3.774   1.740
 1564SOL    HW1 4935   2.324   3.717   1.670
 1564SOL    HW2 4936   2.300   3.843   1.772
 1565SOL     OW 4937   2.169   3.937   1.231
 1565SOL    HW1 4938   2.146   3.974   1.321
 1565SOL    HW2 4939   2.139   3.842   1.225
 1566SOL     OW 4940   2.594   4.358   1.064
 1566SOL    HW1 4941   2.653   4.332   0.988
 1566SOL    HW2 4942   2.566   4.454   1.053
 1567SOL     OW 4943   2.169   3.787   0.618
 1567SOL    HW1 4944   2.158   3.881   0.651
 1567SOL    HW2 4945   2.164   3.724   0.695
 1568SOL     OW 4946   3.484   4.091   0.374
 1568SOL    HW1 4947   3.486   4.015   0.438
 1568SOL    HW2 4948   3.436   4.168   0.414
 1569SOL     OW 4949   3.402   3.998   0.125
 1569SOL    HW1 4950   3.341   3.923   0.148
 1569SOL    HW2 4951   3.424   4.050   0.208
 1570SOL     OW 4952   2.201   4.233   1.006
 1570SOL    HW1 4953   2.149   4.150   0.989
 1570SOL    HW2 4954   2.278   4.238   0.942
 1571SOL     OW 4955   3.000   4.104   1.678
 1571SOL    HW1 4956   2.955   4.167   1.742
 1571SOL    HW2 4957   3.093   4.135   1.661
 1572SOL     OW 4958   1.902   4.268   1.114
 1572SOL    HW1 4959   1.987   4.235   1.073
 1572SOL    HW2 4960   1.915   4.283   1.212
 1573SOL     OW 4961   2.051   4.244   1.722
 1573SOL    HW1 4962   2.110   4.204   1.652
 1573SOL    HW2 4963   1.993   4.315   1.681
 1574SOL     OW 4964   3.519   4.328   1.206
 1574SOL    HW1 4965   3.481   4.259   1.268
 1574SOL    HW2 4966   3.601   4.292   1.162
 1575SOL     OW 4967   2.533   4.188   1.269
 1575SOL    HW1 4968   2.499   4.099   1.239
 1575SOL    HW2 4969   2.559   4.242   1.189
 1576SOL     OW 4970   3.588   3.859   0.523
 1576SOL    HW1 4971   3.661   3.842   0.456
 1576SOL    HW2 4972   3.557   3.772   0.561
 1577SOL     OW 4973   3.703   3.899   0.963
 1577SOL    HW1 4974   3.742   3.814   0.927
 1577SOL    HW2 4975   3.605   3.901   0.944
 1578SOL     OW 4976   2.125   4.050   0.720
 1578SOL    HW1 4977   2.046   4.101   0.686
 1578SOL    HW2 4978   2.116   4.035   0.818
 1579SOL     OW 4979   2.876   3.960   0.971
 1579SOL    HW1 4980   2.868   3.924   0.878
 1579SOL    HW2 4981   2.874   3.884   1.036
 1580SOL     OW 4982   3.571   4.109   1.381
 1580SOL    HW1 4983   3.644   4.178   1.385
 1580SOL    HW2 4984   3.599   4.034   1.322
 1581SOL     OW 4985   1.937   4.069   0.033
 1581SOL    HW1 4986   1.845   4.041   0.004
 1581SOL    HW2 4987   1.968   4.146  -0.023
 1582SOL     OW 4988   1.934   3.890   0.318
 1582SOL    HW1 4989   1.917   3.973   0.264
 1582SOL    HW2 4990   2.024   3.853   0.296
 1583SOL     OW 4991   2.578   4.289   1.708
 1583SOL    HW1 4992   2.597   4.354   1.782
 1583SOL    HW2 4993   2.638   4.209   1.717
 1584SOL     OW 4994   3.087   4.049   0.449
 1584SOL    HW1 4995   3.152   3.975   0.438
 1584SOL    HW2 4996   3.107   4.099   0.533
 1585SOL     OW 4997   3.686   3.916   1.227
 1585SOL    HW1 4998   3.682   3.826   1.271
 1585SOL    HW2 4999   3.689   3.905   1.128
 1586SOL     OW 5000   2.290   4.148   0.520
 1586SOL    HW1 5001   2.320   4.076   0.458
 1586SOL    HW2 5002   2.251   4.108   0.603
 1587SOL     OW 5003   2.179   4.271   1.280
 1587SOL    HW1 5004   2.217   4.212   1.352
 1587SOL    HW2 5005   2.219   4.245   1.192
 1588SOL     OW 5006   3.286   3.938   1.112
 1588SOL    HW1 5007   3.338   3.873   1.167
 1588SOL    HW2 5008   3.237   4.001   1.173
 1589SOL     OW 5009   3.162   4.177   0.691
 1589SOL    HW1 5010   3.103   4.257   0.695
 1589SOL    HW2 5011   3.177   4.142   0.784
 1590SOL     OW 5012   3.455   3.945   0.882
 1590SOL    HW1 5013   3.371   3.944   0.936
 1590SOL    HW2 5014   3.457   4.028   0.826
 1591SOL     OW 5015   2.087   3.999   2.858
 1591SOL    HW1 5016   2.122   3.982   2.950
 1591SOL    HW2 5017   1.999   3.954   2.846
 1592SOL     OW 5018   1.881   4.092   2.509
 1592SOL    HW1 5019   1.799   4.135   2.548
 1592SOL    HW2 5020   1.853   4.019   2.446
 1593SOL     OW 5021   3.617   4.331   2.093
 1593SOL    HW1 5022   3.605   4.318   1.994
 1593SOL    HW2 5023   3.587   4.250   2.142
 1594SOL     OW 5024   3.465   4.171   2.599
 1594SOL    HW1 5025   3.391   4.217   2.549
 1594SOL    HW2 5026   3.516   4.239   2.652
 1595SOL     OW 5027   1.984   4.367   2.425
 1595SOL    HW1 5028   1.939   4.279   2.442
 1595SOL    HW2 5029   1.983   4.421   2.509
 1596SOL     OW 5030   2.671   3.728   2.364
 1596SOL    HW1 5031   2.711   3.819   2.355
 1596SOL    HW2 5032   2.571   3.736   2.370
 1597SOL     OW 5033   3.143   4.069   2.806
 1597SOL    HW1 5034   3.057   4.019   2.793
 1597SOL    HW2 5035   3.205   4.015   2.862
 1598SOL     OW 5036   2.903   4.425   2.291
 1598SOL    HW1 5037   2.929   4.421   2.387
 1598SOL    HW2 5038   2.818   4.374   2.277
 1599SOL     OW 5039   1.938   4.535   2.651
 1599SOL    HW1 5040   2.037   4.523   2.660
 1599SOL    HW2 5041   1.914   4.630   2.672
 1600SOL     OW 5042   2.727   4.072   2.057
 1600SOL    HW1 5043   2.786   4.135   2.008
 1600SOL    HW2 5044   2.746   3.978   2.028
 1601SOL     OW 5045   2.412   3.920   2.747
 1601SOL    HW1 5046   2.407   3.915   2.847
 1601SOL    HW2 5047   2.414   4.016   2.718
 1602SOL     OW 5048   3.320   4.459   2.590
 1602SOL    HW1 5049   3.315   4.394   2.665
 1602SOL    HW2 5050   3.400   4.518   2.603
 1603SOL     OW 5051   2.064   4.009   3.360
 1603SOL    HW1 5052   1.984   4.069   3.347
 1603SOL    HW2 5053   2.054   3.960   3.446
 1604SOL     OW 5054   3.262   3.831   2.288
 1604SOL    HW1 5055   3.238   3.794   2.198
 1604SOL    HW2 5056   3.361   3.847   2.292
 1605SOL     OW 5057   2.476   3.846   1.979
 1605SOL    HW1 5058   2.574   3.824   1.986
 1605SOL    HW2 5059   2.445   3.829   1.886
 1606SOL     OW 5060   2.784   4.227   2.761
 1606SOL    HW1 5061   2.759   4.218   2.665
 1606SOL    HW2 5062   2.832   4.145   2.792
 1607SOL     OW 5063   2.401   3.788   2.374
 1607SOL    HW1 5064   2.320   3.789   2.432
 1607SOL    HW2 5065   2.404   3.871   2.319
 1608SOL     OW 5066   2.159   3.759   2.033
 1608SOL    HW1 5067   2.208   3.843   2.012
 1608SOL    HW2 5068   2.221   3.694   2.078
 1609SOL     OW 5069   2.797   3.960   2.342
 1609SOL    HW1 5070   2.749   4.001   2.264
 1609SOL    HW2 5071   2.896   3.958   2.323
 1610SOL     OW 5072   2.894   4.273   1.878
 1610SOL    HW1 5073   2.853   4.355   1.839
 1610SOL    HW2 5074   2.958   4.299   1.951
 1611SOL     OW 5075   1.940   4.280   3.248
 1611SOL    HW1 5076   2.032   4.279   3.207
 1611SOL    HW2 5077   1.934   4.354   3.315
 1612SOL     OW 5078   2.423   3.946   3.009
 1612SOL    HW1 5079   2.461   3.862   3.046
 1612SOL    HW2 5080   2.335   3.965   3.053
 1613SOL     OW 5081   2.728   4.178   2.504
 1613SOL    HW1 5082   2.696   4.250   2.442
 1613SOL    HW2 5083   2.752   4.097   2.451
 1614SOL     OW 5084   2.879   3.763   2.615
 1614SOL    HW1 5085   2.807   3.768   2.546
 1614SOL    HW2 5086   2.855   3.694   2.684
 1615SOL     OW 5087   3.328   4.314   2.854
 1615SOL    HW1 5088   3.298   4.219   2.861
 1615SOL    HW2 5089   3.401   4.330   2.920
 1616SOL     OW 5090   2.389   3.980   2.190
 1616SOL    HW1 5091   2.416   3.921   2.115
 1616SOL    HW2 5092   2.389   4.075   2.159
 1617SOL     OW 5093   2.428   4.261   2.727
 1617SOL    HW1 5094   2.440   4.327   2.653
 1617SOL    HW2 5095   2.474   4.295   2.810
 1618SOL     OW 5096   3.444   4.363   2.334
 1618SOL    HW1 5097   3.413   4.424   2.407
 1618SOL    HW2 5098   3.494   4.415   2.265
 1619SOL     OW 5099   3.071   4.249   2.137
 1619SOL    HW1 5100   3.084   4.165   2.191
 1619SOL    HW2 5101   3.042   4.323   2.197
 1620SOL     OW 5102   2.169   3.937   3.093
 1620SOL    HW1 5103   2.146   3.974   3.183
 1620SOL    HW2 5104   2.139   3.842   3.087
 1621SOL     OW 5105   2.594   4.358   2.926
 1621SOL    HW1 5106   2.653   4.332   2.850
 1621SOL    HW2 5107   2.566   4.454   2.915
 1622SOL     OW 5108   2.169   3.787   2.480
 1622SOL    HW1 5109   2.158   3.881   2.513
 1622SOL    HW2 5110   2.164   3.724   2.557
 1623SOL     OW 5111   3.484   4.091   2.236
 1623SOL    HW1 5112   3.486   4.015   2.300
 1623SOL    HW2 5113   3.436   4.168   2.276
 1624SOL     OW 5114   3.402   3.998   1.987
 1624SOL    HW1 5115   3.341   3.923   2.010
 1624SOL    HW2 5116   3.424   4.050   2.070
 1625SOL     OW 5117   2.201   4.233   2.868
 1625SOL    HW1 5118   2.149   4.150   2.851
 1625SOL    HW2 5119   2.278   4.238   2.804
 1626SOL     OW 5120   1.902   4.268   2.976
 1626SOL    HW1 5121   1.987   4.235   2.935
 1626SOL    HW2 5122   1.915   4.283   3.074
 1627SOL     OW 5123   2.677   4.296   2.187
 1627SOL    HW1 5124   2.684   4.207   2.141
 1627SOL    HW2 5125   2.583   4.330   2.179
 1628SOL     OW 5126   3.519   4.328   3.068
 1628SOL    HW1 5127   3.481   4.259   3.130
 1628SOL    HW2 5128   3.601   4.292   3.024
 1629SOL     OW 5129   3.588   3.859   2.385
 1629SOL    HW1 5130   3.661   3.842   2.318
 1629SOL    HW2 5131   3.557   3.772   2.423
 1630SOL     OW 5132   3.703   3.899   2.825
 1630SOL    HW1 5133   3.742   3.814   2.789
 1630SOL    HW2 5134   3.605   3.901   2.806
 1631SOL     OW 5135   2.125   4.050   2.582
 1631SOL    HW1 5136   2.046   4.101   2.548
 1631SOL    HW2 5137   2.116   4.035   2.680
 1632SOL     OW 5138   2.876   3.960   2.833
 1632SOL    HW1 5139   2.868   3.924   2.740
 1632SOL    HW2 5140   2.874   3.884   2.898
 1633SOL     OW 5141   1.937   4.069   1.895
 1633SOL    HW1 5142   1.845   4.041   1.866
 1633SOL    HW2 5143   1.968   4.146   1.839
 1634SOL     OW 5144   1.934   3.890   2.180
 1634SOL    HW1 5145   1.917   3.973   2.126
 1634SOL    HW2 5146   2.024   3.853   2.158
 1635SOL     OW 5147   3.087   4.049   2.311
 1635SOL    HW1 5148   3.152   3.975   2.300
 1635SOL    HW2 5149   3.107   4.099   2.395
 1636SOL     OW 5150   2.945   4.708   1.949
 1636SOL    HW1 5151   2.922   4.761   1.867
 1636SOL    HW2 5152   3.026   4.652   1.930
 1637SOL     OW 5153   2.290   4.148   2.382
 1637SOL    HW1 5154   2.320   4.076   2.320
 1637SOL    HW2 5155   2.251   4.108   2.465
 1638SOL     OW 5156   2.863   3.758   3.016
 1638SOL    HW1 5157   2.800   3.686   2.985
 1638SOL    HW2 5158   2.956   3.722   3.016
 1639SOL     OW 5159   3.162   4.177   2.553
 1639SOL    HW1 5160   3.103   4.257   2.557
 1639SOL    HW2 5161   3.177   4.142   2.646
 1640SOL     OW 5162   3.455   3.945   2.744
 1640SOL    HW1 5163   3.371   3.944   2.798
 1640SOL    HW2 5164   3.457   4.028   2.688
 1641SOL     OW 5165   3.949   0.275   0.996
 1641SOL    HW1 5166   3.984   0.258   1.088
 1641SOL    HW2 5167   3.861   0.230   0.984
 1642SOL     OW 5168   3.743   0.368   0.647
 1642SOL    HW1 5169   3.661   0.411   0.686
 1642SOL    HW2 5170   3.715   0.295   0.584
 1643SOL     OW 5171   4.574   0.798   1.823
 1643SOL    HW1 5172   4.570   0.874   1.888
 1643SOL    HW2 5173   4.596   0.834   1.732
 1644SOL     OW 5174   4.059   1.435   1.061
 1644SOL    HW1 5175   3.981   1.404   1.008
 1644SOL    HW2 5176   4.117   1.493   1.004
 1645SOL     OW 5177   4.162   0.392   1.499
 1645SOL    HW1 5178   4.244   0.336   1.508
 1645SOL    HW2 5179   4.081   0.334   1.503
 1646SOL     OW 5180   3.955   1.713   0.483
 1646SOL    HW1 5181   3.989   1.790   0.537
 1646SOL    HW2 5182   3.999   1.713   0.393
 1647SOL     OW 5183   3.954   1.434   0.538
 1647SOL    HW1 5184   3.928   1.530   0.538
 1647SOL    HW2 5185   3.883   1.380   0.583
 1648SOL     OW 5186   3.964   1.091   0.886
 1648SOL    HW1 5187   3.978   1.007   0.938
 1648SOL    HW2 5188   3.909   1.155   0.941
 1649SOL     OW 5189   3.846   0.643   0.563
 1649SOL    HW1 5190   3.801   0.555   0.580
 1649SOL    HW2 5191   3.845   0.697   0.647
 1650SOL     OW 5192   3.837   0.737   1.597
 1650SOL    HW1 5193   3.925   0.724   1.642
 1650SOL    HW2 5194   3.824   0.834   1.575
 1651SOL     OW 5195   4.337   1.365   0.726
 1651SOL    HW1 5196   4.288   1.278   0.735
 1651SOL    HW2 5197   4.314   1.408   0.639
 1652SOL     OW 5198   3.921   0.976   1.264
 1652SOL    HW1 5199   4.010   0.931   1.250
 1652SOL    HW2 5200   3.848   0.911   1.245
 1653SOL     OW 5201   4.041   0.251   1.801
 1653SOL    HW1 5202   4.112   0.322   1.807
 1653SOL    HW2 5203   3.953   0.290   1.829
 1654SOL     OW 5204   3.800   0.811   0.789
 1654SOL    HW1 5205   3.899   0.799   0.798
 1654SOL    HW2 5206   3.776   0.906   0.810
 1655SOL     OW 5207   3.854   1.821   1.571
 1655SOL    HW1 5208   3.844   1.806   1.670
 1655SOL    HW2 5209   3.768   1.857   1.535
 1656SOL     OW 5210   4.589   0.348   0.195
 1656SOL    HW1 5211   4.648   0.411   0.146
 1656SOL    HW2 5212   4.608   0.254   0.166
 1657SOL     OW 5213   4.274   0.196   0.885
 1657SOL    HW1 5214   4.269   0.191   0.985
 1657SOL    HW2 5215   4.276   0.292   0.856
 1658SOL     OW 5216   4.075   1.801   0.853
 1658SOL    HW1 5217   4.125   1.715   0.859
 1658SOL    HW2 5218   4.140   1.878   0.850
 1659SOL     OW 5219   4.185   1.266   1.727
 1659SOL    HW1 5220   4.135   1.267   1.641
 1659SOL    HW2 5221   4.122   1.248   1.803
 1660SOL     OW 5222   3.926   0.285   1.498
 1660SOL    HW1 5223   3.846   0.345   1.485
 1660SOL    HW2 5224   3.916   0.236   1.584
 1661SOL     OW 5225   3.973   1.785   1.241
 1661SOL    HW1 5226   4.030   1.720   1.291
 1661SOL    HW2 5227   3.957   1.752   1.148
 1662SOL     OW 5228   4.106   0.700   0.480
 1662SOL    HW1 5229   4.151   0.610   0.477
 1662SOL    HW2 5230   4.012   0.689   0.513
 1663SOL     OW 5231   4.263   0.064   0.512
 1663SOL    HW1 5232   4.182   0.065   0.570
 1663SOL    HW2 5233   4.266   0.147   0.457
 1664SOL     OW 5234   4.659   0.236   0.480
 1664SOL    HW1 5235   4.611   0.277   0.402
 1664SOL    HW2 5236   4.758   0.234   0.461
 1665SOL     OW 5237   4.183   1.152   0.741
 1665SOL    HW1 5238   4.112   1.125   0.806
 1665SOL    HW2 5239   4.157   1.124   0.648
 1666SOL     OW 5240   3.802   0.556   1.386
 1666SOL    HW1 5241   3.894   0.555   1.345
 1666SOL    HW2 5242   3.796   0.630   1.453
 1667SOL     OW 5243   4.285   0.222   1.147
 1667SOL    HW1 5244   4.323   0.138   1.184
 1667SOL    HW2 5245   4.197   0.241   1.191
 1668SOL     OW 5246   4.251   0.256   0.328
 1668SOL    HW1 5247   4.278   0.197   0.253
 1668SOL    HW2 5248   4.251   0.351   0.297
 1669SOL     OW 5249   4.134   0.813   1.251
 1669SOL    HW1 5250   4.220   0.825   1.301
 1669SOL    HW2 5251   4.092   0.726   1.278
 1670SOL     OW 5252   3.788   1.564   1.331
 1670SOL    HW1 5253   3.742   1.646   1.297
 1670SOL    HW2 5254   3.886   1.583   1.340
 1671SOL     OW 5255   4.091   1.100   0.501
 1671SOL    HW1 5256   4.084   1.183   0.445
 1671SOL    HW2 5257   4.095   1.020   0.441
 1672SOL     OW 5258   4.290   0.537   0.865
 1672SOL    HW1 5259   4.302   0.603   0.791
 1672SOL    HW2 5260   4.336   0.571   0.948
 1673SOL     OW 5261   4.078   1.510   1.329
 1673SOL    HW1 5262   4.057   1.466   1.242
 1673SOL    HW2 5263   4.175   1.536   1.332
 1674SOL     OW 5264   4.126   0.751   1.598
 1674SOL    HW1 5265   4.194   0.806   1.551
 1674SOL    HW2 5266   4.166   0.663   1.625
 1675SOL     OW 5267   4.228   0.050   1.740
 1675SOL    HW1 5268   4.186  -0.007   1.670
 1675SOL    HW2 5269   4.162   0.119   1.772
 1676SOL     OW 5270   4.297   0.870   1.029
 1676SOL    HW1 5271   4.341   0.959   1.020
 1676SOL    HW2 5272   4.234   0.870   1.106
 1677SOL     OW 5273   4.031   0.213   1.231
 1677SOL    HW1 5274   4.008   0.250   1.321
 1677SOL    HW2 5275   4.001   0.118   1.225
 1678SOL     OW 5276   3.761   1.310   1.282
 1678SOL    HW1 5277   3.814   1.261   1.350
 1678SOL    HW2 5278   3.783   1.408   1.287
 1679SOL     OW 5279   4.031   0.063   0.618
 1679SOL    HW1 5280   4.020   0.157   0.651
 1679SOL    HW2 5281   4.026   0.000   0.695
 1680SOL     OW 5282   4.074   0.898   1.804
 1680SOL    HW1 5283   4.150   0.942   1.852
 1680SOL    HW2 5284   4.109   0.851   1.722
 1681SOL     OW 5285   4.043   0.810   0.949
 1681SOL    HW1 5286   4.136   0.846   0.954
 1681SOL    HW2 5287   4.037   0.725   1.001
 1682SOL     OW 5288   4.063   0.509   1.006
 1682SOL    HW1 5289   4.011   0.426   0.989
 1682SOL    HW2 5290   4.140   0.514   0.942
 1683SOL     OW 5291   3.812   1.801   0.927
 1683SOL    HW1 5292   3.770   1.715   0.900
 1683SOL    HW2 5293   3.906   1.804   0.893
 1684SOL     OW 5294   4.228   1.568   0.910
 1684SOL    HW1 5295   4.294   1.642   0.919
 1684SOL    HW2 5296   4.272   1.489   0.868
 1685SOL     OW 5297   3.764   0.544   1.114
 1685SOL    HW1 5298   3.849   0.511   1.073
 1685SOL    HW2 5299   3.777   0.559   1.212
 1686SOL     OW 5300   3.913   0.520   1.722
 1686SOL    HW1 5301   3.972   0.480   1.652
 1686SOL    HW2 5302   3.855   0.591   1.681
 1687SOL     OW 5303   4.539   0.572   0.325
 1687SOL    HW1 5304   4.546   0.483   0.279
 1687SOL    HW2 5305   4.445   0.606   0.317
 1688SOL     OW 5306   3.976   1.564   1.744
 1688SOL    HW1 5307   3.946   1.621   1.820
 1688SOL    HW2 5308   3.969   1.467   1.770
 1689SOL     OW 5309   4.197   0.500   0.191
 1689SOL    HW1 5310   4.258   0.580   0.195
 1689SOL    HW2 5311   4.102   0.531   0.198
 1690SOL     OW 5312   3.883   1.137   1.466
 1690SOL    HW1 5313   3.905   1.076   1.542
 1690SOL    HW2 5314   3.893   1.088   1.380
 1691SOL     OW 5315   3.807   1.258   1.022
 1691SOL    HW1 5316   3.802   1.257   1.122
 1691SOL    HW2 5317   3.724   1.217   0.984
 1692SOL     OW 5318   4.412   1.662   1.716
 1692SOL    HW1 5319   4.356   1.743   1.725
 1692SOL    HW2 5320   4.464   1.666   1.630
 1693SOL     OW 5321   3.854   1.794   1.851
 1693SOL    HW1 5322   3.813   1.720   1.904
 1693SOL    HW2 5323   3.918   1.845   1.909
 1694SOL     OW 5324   3.987   0.326   0.720
 1694SOL    HW1 5325   3.908   0.377   0.686
 1694SOL    HW2 5326   3.978   0.311   0.818
 1695SOL     OW 5327   4.096   1.288   1.490
 1695SOL    HW1 5328   4.083   1.381   1.456
 1695SOL    HW2 5329   4.012   1.236   1.477
 1696SOL     OW 5330   4.314   1.487   0.491
 1696SOL    HW1 5331   4.356   1.429   0.421
 1696SOL    HW2 5332   4.270   1.566   0.447
 1697SOL     OW 5333   3.829   1.013   1.726
 1697SOL    HW1 5334   3.752   0.980   1.780
 1697SOL    HW2 5335   3.914   0.983   1.768
 1698SOL     OW 5336   3.796   0.166   0.318
 1698SOL    HW1 5337   3.779   0.249   0.264
 1698SOL    HW2 5338   3.886   0.129   0.296
 1699SOL     OW 5339   4.337   0.842   1.431
 1699SOL    HW1 5340   4.393   0.923   1.414
 1699SOL    HW2 5341   4.396   0.762   1.434
 1700SOL     OW 5342   4.114   1.741   1.560
 1700SOL    HW1 5343   4.023   1.782   1.558
 1700SOL    HW2 5344   4.107   1.647   1.592
 1701SOL     OW 5345   4.318   0.745   0.652
 1701SOL    HW1 5346   4.368   0.830   0.633
 1701SOL    HW2 5347   4.230   0.747   0.604
 1702SOL     OW 5348   3.945   1.314   1.844
 1702SOL    HW1 5349   3.880   1.241   1.823
 1702SOL    HW2 5350   3.949   1.328   1.942
 1703SOL     OW 5351   3.803   1.240   0.653
 1703SOL    HW1 5352   3.802   1.193   0.741
 1703SOL    HW2 5353   3.885   1.212   0.602
 1704SOL     OW 5354   4.396   1.391   1.624
 1704SOL    HW1 5355   4.318   1.341   1.662
 1704SOL    HW2 5356   4.393   1.486   1.655
 1705SOL     OW 5357   4.152   0.424   0.520
 1705SOL    HW1 5358   4.182   0.352   0.458
 1705SOL    HW2 5359   4.113   0.384   0.603
 1706SOL     OW 5360   4.041   0.547   1.280
 1706SOL    HW1 5361   4.079   0.488   1.352
 1706SOL    HW2 5362   4.081   0.521   1.192
 1707SOL     OW 5363   3.763   1.077   0.300
 1707SOL    HW1 5364   3.862   1.066   0.291
 1707SOL    HW2 5365   3.723   0.991   0.332
 1708SOL     OW 5366   3.954   0.628   1.975
 1708SOL    HW1 5367   3.861   0.626   2.012
 1708SOL    HW2 5368   3.955   0.589   1.883
 1709SOL     OW 5369   3.949   0.275   2.858
 1709SOL    HW1 5370   3.984   0.258   2.950
 1709SOL    HW2 5371   3.861   0.230   2.846
 1710SOL     OW 5372   3.743   0.368   2.509
 1710SOL    HW1 5373   3.661   0.411   2.548
 1710SOL    HW2 5374   3.715   0.295   2.446
 1711SOL     OW 5375   4.059   1.435   2.923
 1711SOL    HW1 5376   3.981   1.404   2.870
 1711SOL    HW2 5377   4.117   1.493   2.866
 1712SOL     OW 5378   3.955   1.713   2.345
 1712SOL    HW1 5379   3.989   1.790   2.399
 1712SOL    HW2 5380   3.999   1.713   2.255
 1713SOL     OW 5381   3.954   1.434   2.400
 1713SOL    HW1 5382   3.928   1.530   2.400
 1713SOL    HW2 5383   3.883   1.380   2.445
 1714SOL     OW 5384   3.964   1.091   2.748
 1714SOL    HW1 5385   3.978   1.007   2.800
 1714SOL    HW2 5386   3.909   1.155   2.803
 1715SOL     OW 5387   3.846   0.643   2.425
 1715SOL    HW1 5388   3.801   0.555   2.442
 1715SOL    HW2 5389   3.845   0.697   2.509
 1716SOL     OW 5390   3.751   1.596   1.979
 1716SOL    HW1 5391   3.732   1.500   2.000
 1716SOL    HW2 5392   3.718   1.654   2.054
 1717SOL     OW 5393   4.337   1.365   2.588
 1717SOL    HW1 5394   4.288   1.278   2.597
 1717SOL    HW2 5395   4.314   1.408   2.501
 1718SOL     OW 5396   4.322   0.729   2.132
 1718SOL    HW1 5397   4.346   0.798   2.064
 1718SOL    HW2 5398   4.244   0.762   2.186
 1719SOL     OW 5399   3.800   0.811   2.651
 1719SOL    HW1 5400   3.899   0.799   2.660
 1719SOL    HW2 5401   3.776   0.906   2.672
 1720SOL     OW 5402   4.589   0.348   2.057
 1720SOL    HW1 5403   4.648   0.411   2.008
 1720SOL    HW2 5404   4.608   0.254   2.028
 1721SOL     OW 5405   4.274   0.196   2.747
 1721SOL    HW1 5406   4.269   0.191   2.847
 1721SOL    HW2 5407   4.276   0.292   2.718
 1722SOL     OW 5408   4.075   1.801   2.715
 1722SOL    HW1 5409   4.125   1.715   2.721
 1722SOL    HW2 5410   4.140   1.878   2.712
 1723SOL     OW 5411   4.045   0.943   2.104
 1723SOL    HW1 5412   4.127   0.982   2.062
 1723SOL    HW2 5413   4.018   0.861   2.055
 1724SOL     OW 5414   4.188   1.743   2.185
 1724SOL    HW1 5415   4.221   1.782   2.271
 1724SOL    HW2 5416   4.264   1.736   2.120
 1725SOL     OW 5417   4.106   0.700   2.342
 1725SOL    HW1 5418   4.151   0.610   2.339
 1725SOL    HW2 5419   4.012   0.689   2.375
 1726SOL     OW 5420   4.338   0.122   1.979
 1726SOL    HW1 5421   4.436   0.100   1.986
 1726SOL    HW2 5422   4.307   0.105   1.886
 1727SOL     OW 5423   4.263   0.064   2.374
 1727SOL    HW1 5424   4.182   0.065   2.432
 1727SOL    HW2 5425   4.266   0.147   2.319
 1728SOL     OW 5426   4.021   0.035   2.033
 1728SOL    HW1 5427   4.070   0.119   2.012
 1728SOL    HW2 5428   4.083  -0.030   2.078
 1729SOL     OW 5429   4.659   0.236   2.342
 1729SOL    HW1 5430   4.611   0.277   2.264
 1729SOL    HW2 5431   4.758   0.234   2.323
 1730SOL     OW 5432   4.183   1.152   2.603
 1730SOL    HW1 5433   4.112   1.125   2.668
 1730SOL    HW2 5434   4.157   1.124   2.510
 1731SOL     OW 5435   4.251   0.256   2.190
 1731SOL    HW1 5436   4.278   0.197   2.115
 1731SOL    HW2 5437   4.251   0.351   2.159
 1732SOL     OW 5438   4.134   0.813   3.113
 1732SOL    HW1 5439   4.220   0.825   3.163
 1732SOL    HW2 5440   4.092   0.726   3.140
 1733SOL     OW 5441   3.788   1.564   3.193
 1733SOL    HW1 5442   3.742   1.646   3.159
 1733SOL    HW2 5443   3.886   1.583   3.202
 1734SOL     OW 5444   4.091   1.100   2.363
 1734SOL    HW1 5445   4.084   1.183   2.307
 1734SOL    HW2 5446   4.095   1.020   2.303
 1735SOL     OW 5447   4.290   0.537   2.727
 1735SOL    HW1 5448   4.302   0.603   2.653
 1735SOL    HW2 5449   4.336   0.571   2.810
 1736SOL     OW 5450   4.078   1.510   3.191
 1736SOL    HW1 5451   4.057   1.466   3.104
 1736SOL    HW2 5452   4.175   1.536   3.194
 1737SOL     OW 5453   4.297   0.870   2.891
 1737SOL    HW1 5454   4.341   0.959   2.882
 1737SOL    HW2 5455   4.234   0.870   2.968
 1738SOL     OW 5456   4.031   0.063   2.480
 1738SOL    HW1 5457   4.020   0.157   2.513
 1738SOL    HW2 5458   4.026   0.000   2.557
 1739SOL     OW 5459   4.043   0.810   2.811
 1739SOL    HW1 5460   4.136   0.846   2.816
 1739SOL    HW2 5461   4.037   0.725   2.863
 1740SOL     OW 5462   4.063   0.509   2.868
 1740SOL    HW1 5463   4.011   0.426   2.851
 1740SOL    HW2 5464   4.140   0.514   2.804
 1741SOL     OW 5465   3.732   1.326   2.062
 1741SOL    HW1 5466   3.639   1.347   2.031
 1741SOL    HW2 5467   3.742   1.227   2.075
 1742SOL     OW 5468   3.812   1.801   2.789
 1742SOL    HW1 5469   3.770   1.715   2.762
 1742SOL    HW2 5470   3.906   1.804   2.755
 1743SOL     OW 5471   4.228   1.568   2.772
 1743SOL    HW1 5472   4.294   1.642   2.781
 1743SOL    HW2 5473   4.272   1.489   2.730
 1744SOL     OW 5474   3.764   0.544   2.976
 1744SOL    HW1 5475   3.849   0.511   2.935
 1744SOL    HW2 5476   3.777   0.559   3.074
 1745SOL     OW 5477   4.539   0.572   2.187
 1745SOL    HW1 5478   4.546   0.483   2.141
 1745SOL    HW2 5479   4.445   0.606   2.179
 1746SOL     OW 5480   4.197   0.500   2.053
 1746SOL    HW1 5481   4.258   0.580   2.057
 1746SOL    HW2 5482   4.102   0.531   2.060
 1747SOL     OW 5483   3.987   0.326   2.582
 1747SOL    HW1 5484   3.908   0.377   2.548
 1747SOL    HW2 5485   3.978   0.311   2.680
 1748SOL     OW 5486   4.314   1.487   2.353
 1748SOL    HW1 5487   4.356   1.429   2.283
 1748SOL    HW2 5488   4.270   1.566   2.309
 1749SOL     OW 5489   3.979   1.348   2.152
 1749SOL    HW1 5490   3.883   1.349   2.125
 1749SOL    HW2 5491   3.991   1.401   2.236
 1750SOL     OW 5492   3.799   0.345   1.895
 1750SOL    HW1 5493   3.707   0.317   1.866
 1750SOL    HW2 5494   3.830   0.422   1.839
 1751SOL     OW 5495   3.796   0.166   2.180
 1751SOL    HW1 5496   3.779   0.249   2.126
 1751SOL    HW2 5497   3.886   0.129   2.158
 1752SOL     OW 5498   4.337   0.842   3.293
 1752SOL    HW1 5499   4.393   0.923   3.276
 1752SOL    HW2 5500   4.396   0.762   3.296
 1753SOL     OW 5501   4.318   0.745   2.514
 1753SOL    HW1 5502   4.368   0.830   2.495
 1753SOL    HW2 5503   4.230   0.747   2.466
 1754SOL     OW 5504   3.803   1.240   2.515
 1754SOL    HW1 5505   3.802   1.193   2.603
 1754SOL    HW2 5506   3.885   1.212   2.464
 1755SOL     OW 5507   4.152   0.424   2.382
 1755SOL    HW1 5508   4.182   0.352   2.320
 1755SOL    HW2 5509   4.113   0.384   2.465
 1756SOL     OW 5510   4.041   0.547   3.142
 1756SOL    HW1 5511   4.079   0.488   3.214
 1756SOL    HW2 5512   4.081   0.521   3.054
 1757SOL     OW 5513   3.763   1.077   2.162
 1757SOL    HW1 5514   3.862   1.066   2.153
 1757SOL    HW2 5515   3.723   0.991   2.194
 1758SOL     OW 5516   3.949   2.137   0.996
 1758SOL    HW1 5517   3.984   2.120   1.088
 1758SOL    HW2 5518   3.861   2.092   0.984
 1759SOL     OW 5519   3.743   2.230   0.647
 1759SOL    HW1 5520   3.661   2.273   0.686
 1759SOL    HW2 5521   3.715   2.157   0.584
 1760SOL     OW 5522   4.574   2.660   1.823
 1760SOL    HW1 5523   4.570   2.736   1.888
 1760SOL    HW2 5524   4.596   2.696   1.732
 1761SOL     OW 5525   4.059   3.297   1.061
 1761SOL    HW1 5526   3.981   3.266   1.008
 1761SOL    HW2 5527   4.117   3.355   1.004
 1762SOL     OW 5528   4.162   2.254   1.499
 1762SOL    HW1 5529   4.244   2.198   1.508
 1762SOL    HW2 5530   4.081   2.196   1.503
 1763SOL     OW 5531   3.955   3.575   0.483
 1763SOL    HW1 5532   3.989   3.652   0.537
 1763SOL    HW2 5533   3.999   3.575   0.393
 1764SOL     OW 5534   3.954   3.296   0.538
 1764SOL    HW1 5535   3.928   3.392   0.538
 1764SOL    HW2 5536   3.883   3.242   0.583
 1765SOL     OW 5537   3.846   2.505   0.563
 1765SOL    HW1 5538   3.801   2.417   0.580
 1765SOL    HW2 5539   3.845   2.559   0.647
 1766SOL     OW 5540   4.337   3.227   0.726
 1766SOL    HW1 5541   4.288   3.140   0.735
 1766SOL    HW2 5542   4.314   3.270   0.639
 1767SOL     OW 5543   4.041   2.113   1.801
 1767SOL    HW1 5544   4.112   2.184   1.807
 1767SOL    HW2 5545   3.953   2.152   1.829
 1768SOL     OW 5546   3.800   2.673   0.789
 1768SOL    HW1 5547   3.899   2.661   0.798
 1768SOL    HW2 5548   3.776   2.768   0.810
 1769SOL     OW 5549   4.589   2.210   0.195
 1769SOL    HW1 5550   4.648   2.273   0.146
 1769SOL    HW2 5551   4.608   2.116   0.166
 1770SOL     OW 5552   4.274   2.058   0.885
 1770SOL    HW1 5553   4.269   2.053   0.985
 1770SOL    HW2 5554   4.276   2.154   0.856
 1771SOL     OW 5555   4.075   3.663   0.853
 1771SOL    HW1 5556   4.125   3.577   0.859
 1771SOL    HW2 5557   4.140   3.740   0.850
 1772SOL     OW 5558   4.185   3.128   1.727
 1772SOL    HW1 5559   4.135   3.129   1.641
 1772SOL    HW2 5560   4.122   3.110   1.803
 1773SOL     OW 5561   3.926   2.147   1.498
 1773SOL    HW1 5562   3.846   2.207   1.485
 1773SOL    HW2 5563   3.916   2.098   1.584
 1774SOL     OW 5564   4.188   3.605   0.323
 1774SOL    HW1 5565   4.221   3.644   0.409
 1774SOL    HW2 5566   4.264   3.598   0.258
 1775SOL     OW 5567   4.106   2.562   0.480
 1775SOL    HW1 5568   4.151   2.472   0.477
 1775SOL    HW2 5569   4.012   2.551   0.513
 1776SOL     OW 5570   4.263   1.926   0.512
 1776SOL    HW1 5571   4.182   1.927   0.570
 1776SOL    HW2 5572   4.266   2.009   0.457
 1777SOL     OW 5573   4.659   2.098   0.480
 1777SOL    HW1 5574   4.611   2.139   0.402
 1777SOL    HW2 5575   4.758   2.096   0.461
 1778SOL     OW 5576   4.183   3.014   0.741
 1778SOL    HW1 5577   4.112   2.987   0.806
 1778SOL    HW2 5578   4.157   2.986   0.648
 1779SOL     OW 5579   3.802   2.418   1.386
 1779SOL    HW1 5580   3.894   2.417   1.345
 1779SOL    HW2 5581   3.796   2.492   1.453
 1780SOL     OW 5582   4.285   2.084   1.147
 1780SOL    HW1 5583   4.323   2.000   1.184
 1780SOL    HW2 5584   4.197   2.103   1.191
 1781SOL     OW 5585   4.251   2.118   0.328
 1781SOL    HW1 5586   4.278   2.059   0.253
 1781SOL    HW2 5587   4.251   2.213   0.297
 1782SOL     OW 5588   4.134   2.675   1.251
 1782SOL    HW1 5589   4.220   2.687   1.301
 1782SOL    HW2 5590   4.092   2.588   1.278
 1783SOL     OW 5591   4.091   2.962   0.501
 1783SOL    HW1 5592   4.084   3.045   0.445
 1783SOL    HW2 5593   4.095   2.882   0.441
 1784SOL     OW 5594   4.290   2.399   0.865
 1784SOL    HW1 5595   4.302   2.465   0.791
 1784SOL    HW2 5596   4.336   2.433   0.948
 1785SOL     OW 5597   4.228   1.912   1.740
 1785SOL    HW1 5598   4.186   1.855   1.670
 1785SOL    HW2 5599   4.162   1.981   1.772
 1786SOL     OW 5600   4.297   2.732   1.029
 1786SOL    HW1 5601   4.341   2.821   1.020
 1786SOL    HW2 5602   4.234   2.732   1.106
 1787SOL     OW 5603   4.031   2.075   1.231
 1787SOL    HW1 5604   4.008   2.112   1.321
 1787SOL    HW2 5605   4.001   1.980   1.225
 1788SOL     OW 5606   4.031   1.925   0.618
 1788SOL    HW1 5607   4.020   2.019   0.651
 1788SOL    HW2 5608   4.026   1.862   0.695
 1789SOL     OW 5609   4.043   2.672   0.949
 1789SOL    HW1 5610   4.136   2.708   0.954
 1789SOL    HW2 5611   4.037   2.587   1.001
 1790SOL     OW 5612   4.063   2.371   1.006
 1790SOL    HW1 5613   4.011   2.288   0.989
 1790SOL    HW2 5614   4.140   2.376   0.942
 1791SOL     OW 5615   3.812   3.663   0.927
 1791SOL    HW1 5616   3.770   3.577   0.900
 1791SOL    HW2 5617   3.906   3.666   0.893
 1792SOL     OW 5618   4.228   3.430   0.910
 1792SOL    HW1 5619   4.294   3.504   0.919
 1792SOL    HW2 5620   4.272   3.351   0.868
 1793SOL     OW 5621   3.764   2.406   1.114
 1793SOL    HW1 5622   3.849   2.373   1.073
 1793SOL    HW2 5623   3.777   2.421   1.212
 1794SOL     OW 5624   3.913   2.382   1.722
 1794SOL    HW1 5625   3.972   2.342   1.652
 1794SOL    HW2 5626   3.855   2.453   1.681
 1795SOL     OW 5627   4.539   2.434   0.325
 1795SOL    HW1 5628   4.546   2.345   0.279
 1795SOL    HW2 5629   4.445   2.468   0.317
 1796SOL     OW 5630   4.412   3.524   1.716
 1796SOL    HW1 5631   4.356   3.605   1.725
 1796SOL    HW2 5632   4.464   3.528   1.630
 1797SOL     OW 5633   3.987   2.188   0.720
 1797SOL    HW1 5634   3.908   2.239   0.686
 1797SOL    HW2 5635   3.978   2.173   0.818
 1798SOL     OW 5636   4.314   3.349   0.491
 1798SOL    HW1 5637   4.356   3.291   0.421
 1798SOL    HW2 5638   4.270   3.428   0.447
 1799SOL     OW 5639   3.796   2.028   0.318
 1799SOL    HW1 5640   3.779   2.111   0.264
 1799SOL    HW2 5641   3.886   1.991   0.296
 1800SOL     OW 5642   4.337   2.704   1.431
 1800SOL    HW1 5643   4.393   2.785   1.414
 1800SOL    HW2 5644   4.396   2.624   1.434
 1801SOL     OW 5645   4.318   2.607   0.652
 1801SOL    HW1 5646   4.368   2.692   0.633
 1801SOL    HW2 5647   4.230   2.609   0.604
 1802SOL     OW 5648   4.583   3.236   0.016
 1802SOL    HW1 5649   4.537   3.251   0.104
 1802SOL    HW2 5650   4.627   3.321  -0.014
 1803SOL     OW 5651   3.803   3.102   0.653
 1803SOL    HW1 5652   3.802   3.055   0.741
 1803SOL    HW2 5653   3.885   3.074   0.602
 1804SOL     OW 5654   4.396   3.253   1.624
 1804SOL    HW1 5655   4.318   3.203   1.662
 1804SOL    HW2 5656   4.393   3.348   1.655
 1805SOL     OW 5657   4.152   2.286   0.520
 1805SOL    HW1 5658   4.182   2.214   0.458
 1805SOL    HW2 5659   4.113   2.246   0.603
 1806SOL     OW 5660   4.041   2.409   1.280
 1806SOL    HW1 5661   4.079   2.350   1.352
 1806SOL    HW2 5662   4.081   2.383   1.192
 1807SOL     OW 5663   3.763   2.939   0.300
 1807SOL    HW1 5664   3.862   2.928   0.291
 1807SOL    HW2 5665   3.723   2.853   0.332
 1808SOL     OW 5666   3.949   2.137   2.858
 1808SOL    HW1 5667   3.984   2.120   2.950
 1808SOL    HW2 5668   3.861   2.092   2.846
 1809SOL     OW 5669   3.743   2.230   2.509
 1809SOL    HW1 5670   3.661   2.273   2.548
 1809SOL    HW2 5671   3.715   2.157   2.446
 1810SOL     OW 5672   4.059   3.297   2.923
 1810SOL    HW1 5673   3.981   3.266   2.870
 1810SOL    HW2 5674   4.117   3.355   2.866
 1811SOL     OW 5675   3.955   3.575   2.345
 1811SOL    HW1 5676   3.989   3.652   2.399
 1811SOL    HW2 5677   3.999   3.575   2.255
 1812SOL     OW 5678   3.954   3.296   2.400
 1812SOL    HW1 5679   3.928   3.392   2.400
 1812SOL    HW2 5680   3.883   3.242   2.445
 1813SOL     OW 5681   3.964   2.953   2.748
 1813SOL    HW1 5682   3.978   2.869   2.800
 1813SOL    HW2 5683   3.909   3.017   2.803
 1814SOL     OW 5684   3.846   2.505   2.425
 1814SOL    HW1 5685   3.801   2.417   2.442
 1814SOL    HW2 5686   3.845   2.559   2.509
 1815SOL     OW 5687   4.337   3.227   2.588
 1815SOL    HW1 5688   4.288   3.140   2.597
 1815SOL    HW2 5689   4.314   3.270   2.501
 1816SOL     OW 5690   4.322   2.591   2.132
 1816SOL    HW1 5691   4.346   2.660   2.064
 1816SOL    HW2 5692   4.244   2.624   2.186
 1817SOL     OW 5693   3.800   2.673   2.651
 1817SOL    HW1 5694   3.899   2.661   2.660
 1817SOL    HW2 5695   3.776   2.768   2.672
 1818SOL     OW 5696   4.589   2.210   2.057
 1818SOL    HW1 5697   4.648   2.273   2.008
 1818SOL    HW2 5698   4.608   2.116   2.028
 1819SOL     OW 5699   4.274   2.058   2.747
 1819SOL    HW1 5700   4.269   2.053   2.847
 1819SOL    HW2 5701   4.276   2.154   2.718
 1820SOL     OW 5702   4.075   3.663   2.715
 1820SOL    HW1 5703   4.125   3.577   2.721
 1820SOL    HW2 5704   4.140   3.740   2.712
 1821SOL     OW 5705   4.045   2.805   2.104
 1821SOL    HW1 5706   4.127   2.844   2.062
 1821SOL    HW2 5707   4.018   2.723   2.055
 1822SOL     OW 5708   4.188   3.605   2.185
 1822SOL    HW1 5709   4.221   3.644   2.271
 1822SOL    HW2 5710   4.264   3.598   2.120
 1823SOL     OW 5711   3.973   3.647   3.103
 1823SOL    HW1 5712   4.030   3.582   3.153
 1823SOL    HW2 5713   3.957   3.614   3.010
 1824SOL     OW 5714   4.106   2.562   2.342
 1824SOL    HW1 5715   4.151   2.472   2.339
 1824SOL    HW2 5716   4.012   2.551   2.375
 1825SOL     OW 5717   4.338   1.984   1.979
 1825SOL    HW1 5718   4.436   1.962   1.986
 1825SOL    HW2 5719   4.307   1.967   1.886
 1826SOL     OW 5720   4.263   1.926   2.374
 1826SOL    HW1 5721   4.182   1.927   2.432
 1826SOL    HW2 5722   4.266   2.009   2.319
 1827SOL     OW 5723   4.021   1.897   2.033
 1827SOL    HW1 5724   4.070   1.981   2.012
 1827SOL    HW2 5725   4.083   1.832   2.078
 1828SOL     OW 5726   4.659   2.098   2.342
 1828SOL    HW1 5727   4.611   2.139   2.264
 1828SOL    HW2 5728   4.758   2.096   2.323
 1829SOL     OW 5729   4.183   3.014   2.603
 1829SOL    HW1 5730   4.112   2.987   2.668
 1829SOL    HW2 5731   4.157   2.986   2.510
 1830SOL     OW 5732   4.251   2.118   2.190
 1830SOL    HW1 5733   4.278   2.059   2.115
 1830SOL    HW2 5734   4.251   2.213   2.159
 1831SOL     OW 5735   4.091   2.962   2.363
 1831SOL    HW1 5736   4.084   3.045   2.307
 1831SOL    HW2 5737   4.095   2.882   2.303
 1832SOL     OW 5738   4.290   2.399   2.727
 1832SOL    HW1 5739   4.302   2.465   2.653
 1832SOL    HW2 5740   4.336   2.433   2.810
 1833SOL     OW 5741   4.297   2.732   2.891
 1833SOL    HW1 5742   4.341   2.821   2.882
 1833SOL    HW2 5743   4.234   2.732   2.968
 1834SOL     OW 5744   4.031   1.925   2.480
 1834SOL    HW1 5745   4.020   2.019   2.513
 1834SOL    HW2 5746   4.026   1.862   2.557
 1835SOL     OW 5747   4.043   2.672   2.811
 1835SOL    HW1 5748   4.136   2.708   2.816
 1835SOL    HW2 5749   4.037   2.587   2.863
 1836SOL     OW 5750   4.063   2.371   2.868
 1836SOL    HW1 5751   4.011   2.288   2.851
 1836SOL    HW2 5752   4.140   2.376   2.804
 1837SOL     OW 5753   3.812   3.663   2.789
 1837SOL    HW1 5754   3.770   3.577   2.762
 1837SOL    HW2 5755   3.906   3.666   2.755
 1838SOL     OW 5756   4.228   3.430   2.772
 1838SOL    HW1 5757   4.294   3.504   2.781
 1838SOL    HW2 5758   4.272   3.351   2.730
 1839SOL     OW 5759   3.764   2.406   2.976
 1839SOL    HW1 5760   3.849   2.373   2.935
 1839SOL    HW2 5761   3.777   2.421   3.074
 1840SOL     OW 5762   4.539   2.434   2.187
 1840SOL    HW1 5763   4.546   2.345   2.141
 1840SOL    HW2 5764   4.445   2.468   2.179
 1841SOL     OW 5765   4.197   2.362   2.053
 1841SOL    HW1 5766   4.258   2.442   2.057
 1841SOL    HW2 5767   4.102   2.393   2.060
 1842SOL     OW 5768   3.807   3.120   2.884
 1842SOL    HW1 5769   3.802   3.119   2.984
 1842SOL    HW2 5770   3.724   3.079   2.846
 1843SOL     OW 5771   3.987   2.188   2.582
 1843SOL    HW1 5772   3.908   2.239   2.548
 1843SOL    HW2 5773   3.978   2.173   2.680
 1844SOL     OW 5774   4.314   3.349   2.353
 1844SOL    HW1 5775   4.356   3.291   2.283
 1844SOL    HW2 5776   4.270   3.428   2.309
 1845SOL     OW 5777   3.799   2.207   1.895
 1845SOL    HW1 5778   3.707   2.179   1.866
 1845SOL    HW2 5779   3.830   2.284   1.839
 1846SOL     OW 5780   3.796   2.028   2.180
 1846SOL    HW1 5781   3.779   2.111   2.126
 1846SOL    HW2 5782   3.886   1.991   2.158
 1847SOL     OW 5783   4.318   2.607   2.514
 1847SOL    HW1 5784   4.368   2.692   2.495
 1847SOL    HW2 5785   4.230   2.609   2.466
 1848SOL     OW 5786   3.803   3.102   2.515
 1848SOL    HW1 5787   3.802   3.055   2.603
 1848SOL    HW2 5788   3.885   3.074   2.464
 1849SOL     OW 5789   4.152   2.286   2.382
 1849SOL    HW1 5790   4.182   2.214   2.320
 1849SOL    HW2 5791   4.113   2.246   2.465
 1850SOL     OW 5792   3.949   3.999   0.996
 1850SOL    HW1 5793   3.984   3.982   1.088
 1850SOL    HW2 5794   3.861   3.954   0.984
 1851SOL     OW 5795   3.743   4.092   0.647
 1851SOL    HW1 5796   3.661   4.135   0.686
 1851SOL    HW2 5797   3.715   4.019   0.584
 1852SOL     OW 5798   4.162   4.116   1.499
 1852SOL    HW1 5799   4.244   4.060   1.508
 1852SOL    HW2 5800   4.081   4.058   1.503
 1853SOL     OW 5801   3.846   4.367   0.563
 1853SOL    HW1 5802   3.801   4.279   0.580
 1853SOL    HW2 5803   3.845   4.421   0.647
 1854SOL     OW 5804   4.041   3.975   1.801
 1854SOL    HW1 5805   4.112   4.046   1.807
 1854SOL    HW2 5806   3.953   4.014   1.829
 1855SOL     OW 5807   3.800   4.535   0.789
 1855SOL    HW1 5808   3.899   4.523   0.798
 1855SOL    HW2 5809   3.776   4.630   0.810
 1856SOL     OW 5810   4.589   4.072   0.195
 1856SOL    HW1 5811   4.648   4.135   0.146
 1856SOL    HW2 5812   4.608   3.978   0.166
 1857SOL     OW 5813   4.274   3.920   0.885
 1857SOL    HW1 5814   4.269   3.915   0.985
 1857SOL    HW2 5815   4.276   4.016   0.856
 1858SOL     OW 5816   3.926   4.009   1.498
 1858SOL    HW1 5817   3.846   4.069   1.485
 1858SOL    HW2 5818   3.916   3.960   1.584
 1859SOL     OW 5819   4.263   3.788   0.512
 1859SOL    HW1 5820   4.182   3.789   0.570
 1859SOL    HW2 5821   4.266   3.871   0.457
 1860SOL     OW 5822   4.659   3.960   0.480
 1860SOL    HW1 5823   4.611   4.001   0.402
 1860SOL    HW2 5824   4.758   3.958   0.461
 1861SOL     OW 5825   3.802   4.280   1.386
 1861SOL    HW1 5826   3.894   4.279   1.345
 1861SOL    HW2 5827   3.796   4.354   1.453
 1862SOL     OW 5828   4.285   3.946   1.147
 1862SOL    HW1 5829   4.323   3.862   1.184
 1862SOL    HW2 5830   4.197   3.965   1.191
 1863SOL     OW 5831   4.251   3.980   0.328
 1863SOL    HW1 5832   4.278   3.921   0.253
 1863SOL    HW2 5833   4.251   4.075   0.297
 1864SOL     OW 5834   4.290   4.261   0.865
 1864SOL    HW1 5835   4.302   4.327   0.791
 1864SOL    HW2 5836   4.336   4.295   0.948
 1865SOL     OW 5837   4.031   3.937   1.231
 1865SOL    HW1 5838   4.008   3.974   1.321
 1865SOL    HW2 5839   4.001   3.842   1.225
 1866SOL     OW 5840   4.031   3.787   0.618
 1866SOL    HW1 5841   4.020   3.881   0.651
 1866SOL    HW2 5842   4.026   3.724   0.695
 1867SOL     OW 5843   4.063   4.233   1.006
 1867SOL    HW1 5844   4.011   4.150   0.989
 1867SOL    HW2 5845   4.140   4.238   0.942
 1868SOL     OW 5846   3.764   4.268   1.114
 1868SOL    HW1 5847   3.849   4.235   1.073
 1868SOL    HW2 5848   3.777   4.283   1.212
 1869SOL     OW 5849   3.913   4.244   1.722
 1869SOL    HW1 5850   3.972   4.204   1.652
 1869SOL    HW2 5851   3.855   4.315   1.681
 1870SOL     OW 5852   4.539   4.296   0.325
 1870SOL    HW1 5853   4.546   4.207   0.279
 1870SOL    HW2 5854   4.445   4.330   0.317
 1871SOL     OW 5855   3.987   4.050   0.720
 1871SOL    HW1 5856   3.908   4.101   0.686
 1871SOL    HW2 5857   3.978   4.035   0.818
 1872SOL     OW 5858   3.799   4.069   0.033
 1872SOL    HW1 5859   3.707   4.041   0.004
 1872SOL    HW2 5860   3.830   4.146  -0.023
 1873SOL     OW 5861   4.337   4.566   1.431
 1873SOL    HW1 5862   4.393   4.647   1.414
 1873SOL    HW2 5863   4.396   4.486   1.434
 1874SOL     OW 5864   4.152   4.148   0.520
 1874SOL    HW1 5865   4.182   4.076   0.458
 1874SOL    HW2 5866   4.113   4.108   0.603
 1875SOL     OW 5867   4.041   4.271   1.280
 1875SOL    HW1 5868   4.079   4.212   1.352
 1875SOL    HW2 5869   4.081   4.245   1.192
 1876SOL     OW 5870   3.949   3.999   2.858
 1876SOL    HW1 5871   3.984   3.982   2.950
 1876SOL    HW2 5872   3.861   3.954   2.846
 1877SOL     OW 5873   3.743   4.092   2.509
 1877SOL    HW1 5874   3.661   4.135   2.548
 1877SOL    HW2 5875   3.715   4.019   2.446
 1878SOL     OW 5876   3.846   4.367   2.425
 1878SOL    HW1 5877   3.801   4.279   2.442
 1878SOL    HW2 5878   3.845   4.421   2.509
 1879SOL     OW 5879   3.800   4.535   2.651
 1879SOL    HW1 5880   3.899   4.523   2.660
 1879SOL    HW2 5881   3.776   4.630   2.672
 1880SOL     OW 5882   4.589   4.072   2.057
 1880SOL    HW1 5883   4.648   4.135   2.008
 1880SOL    HW2 5884   4.608   3.978   2.028
 1881SOL     OW 5885   4.338   3.846   1.979
 1881SOL    HW1 5886   4.436   3.824   1.986
 1881SOL    HW2 5887   4.307   3.829   1.886
 1882SOL     OW 5888   4.263   3.788   2.374
 1882SOL    HW1 5889   4.182   3.789   2.432
 1882SOL    HW2 5890   4.266   3.871   2.319
 1883SOL     OW 5891   4.021   3.759   2.033
 1883SOL    HW1 5892   4.070   3.843   2.012
 1883SOL    HW2 5893   4.083   3.694   2.078
 1884SOL     OW 5894   4.659   3.960   2.342
 1884SOL    HW1 5895   4.611   4.001   2.264
 1884SOL    HW2 5896   4.758   3.958   2.323
 1885SOL     OW 5897   4.285   3.946   3.009
 1885SOL    HW1 5898   4.323   3.862   3.046
 1885SOL    HW2 5899   4.197   3.965   3.053
 1886SOL     OW 5900   4.251   3.980   2.190
 1886SOL    HW1 5901   4.278   3.921   2.115
 1886SOL    HW2 5902   4.251   4.075   2.159
 1887SOL     OW 5903   4.290   4.261   2.727
 1887SOL    HW1 5904   4.302   4.327   2.653
 1887SOL    HW2 5905   4.336   4.295   2.810
 1888SOL     OW 5906   4.031   3.937   3.093
 1888SOL    HW1 5907   4.008   3.974   3.183
 1888SOL    HW2 5908   4.001   3.842   3.087
 1889SOL     OW 5909   4.031   3.787   2.480
 1889SOL    HW1 5910   4.020   3.881   2.513
 1889SOL    HW2 5911   4.026   3.724   2.557
 1890SOL     OW 5912   4.063   4.233   2.868
 1890SOL    HW1 5913   4.011   4.150   2.851
 1890SOL    HW2 5914   4.140   4.238   2.804
 1891SOL     OW 5915   3.764   4.268   2.976
 1891SOL    HW1 5916   3.849   4.235   2.935
 1891SOL    HW2 5917   3.777   4.283   3.074
 1892SOL     OW 5918   4.539   4.296   2.187
 1892SOL    HW1 5919   4.546   4.207   2.141
 1892SOL    HW2 5920   4.445   4.330   2.179
 1893SOL     OW 5921   3.987   4.050   2.582
 1893SOL    HW1 5922   3.908   4.101   2.548
 1893SOL    HW2 5923   3.978   4.035   2.680
 1894SOL     OW 5924   3.799   4.069   1.895
 1894SOL    HW1 5925   3.707   4.041   1.866
 1894SOL    HW2 5926   3.830   4.146   1.839
 1895SOL     OW 5927   3.796   3.890   2.180
 1895SOL    HW1 5928   3.779   3.973   2.126
 1895SOL    HW2 5929   3.886   3.853   2.158
 1896SOL     OW 5930   4.152   4.148   2.382
 1896SOL    HW1 5931   4.182   4.076   2.320
 1896SOL    HW2 5932   4.113   4.108   2.465
 1897CL      CL 5933   4.274   3.920   2.747
   4.39229   4.39229   3.10582   0.00000   0.00000   0.00000   0.00000   2.19615   2.19615
